+ 0.101 2 5 ping 64 ------- 3 2.0 4.0 -1 0
- 0.101 2 5 ping 64 ------- 3 2.0 4.0 -1 0
+ 0.101 3 5 ping 64 ------- 4 3.0 4.0 -1 1
- 0.101 3 5 ping 64 ------- 4 3.0 4.0 -1 1
+ 0.102 2 5 ping 64 ------- 3 2.0 4.0 -1 2
- 0.102 2 5 ping 64 ------- 3 2.0 4.0 -1 2
+ 0.102 3 5 ping 64 ------- 4 3.0 4.0 -1 3
- 0.102 3 5 ping 64 ------- 4 3.0 4.0 -1 3
+ 0.103 2 5 ping 64 ------- 3 2.0 4.0 -1 4
- 0.103 2 5 ping 64 ------- 3 2.0 4.0 -1 4
+ 0.103 3 5 ping 64 ------- 4 3.0 4.0 -1 5
- 0.103 3 5 ping 64 ------- 4 3.0 4.0 -1 5
+ 0.104 2 5 ping 64 ------- 3 2.0 4.0 -1 6
- 0.104 2 5 ping 64 ------- 3 2.0 4.0 -1 6
+ 0.104 3 5 ping 64 ------- 4 3.0 4.0 -1 7
- 0.104 3 5 ping 64 ------- 4 3.0 4.0 -1 7
+ 0.105 2 5 ping 64 ------- 3 2.0 4.0 -1 8
- 0.105 2 5 ping 64 ------- 3 2.0 4.0 -1 8
+ 0.105 3 5 ping 64 ------- 4 3.0 4.0 -1 9
- 0.105 3 5 ping 64 ------- 4 3.0 4.0 -1 9
+ 0.106 2 5 ping 64 ------- 3 2.0 4.0 -1 10
- 0.106 2 5 ping 64 ------- 3 2.0 4.0 -1 10
+ 0.106 3 5 ping 64 ------- 4 3.0 4.0 -1 11
- 0.106 3 5 ping 64 ------- 4 3.0 4.0 -1 11
+ 0.107 2 5 ping 64 ------- 3 2.0 4.0 -1 12
- 0.107 2 5 ping 64 ------- 3 2.0 4.0 -1 12
+ 0.107 3 5 ping 64 ------- 4 3.0 4.0 -1 13
- 0.107 3 5 ping 64 ------- 4 3.0 4.0 -1 13
+ 0.108 2 5 ping 64 ------- 3 2.0 4.0 -1 14
- 0.108 2 5 ping 64 ------- 3 2.0 4.0 -1 14
+ 0.108 3 5 ping 64 ------- 4 3.0 4.0 -1 15
- 0.108 3 5 ping 64 ------- 4 3.0 4.0 -1 15
+ 0.109 2 5 ping 64 ------- 3 2.0 4.0 -1 16
- 0.109 2 5 ping 64 ------- 3 2.0 4.0 -1 16
+ 0.109 3 5 ping 64 ------- 4 3.0 4.0 -1 17
- 0.109 3 5 ping 64 ------- 4 3.0 4.0 -1 17
+ 0.11 2 5 ping 64 ------- 3 2.0 4.0 -1 18
- 0.11 2 5 ping 64 ------- 3 2.0 4.0 -1 18
+ 0.11 3 5 ping 64 ------- 4 3.0 4.0 -1 19
- 0.11 3 5 ping 64 ------- 4 3.0 4.0 -1 19
+ 0.111 2 5 ping 64 ------- 3 2.0 4.0 -1 20
- 0.111 2 5 ping 64 ------- 3 2.0 4.0 -1 20
+ 0.111 3 5 ping 64 ------- 4 3.0 4.0 -1 21
- 0.111 3 5 ping 64 ------- 4 3.0 4.0 -1 21
r 0.111512 2 5 ping 64 ------- 3 2.0 4.0 -1 0
+ 0.111512 5 4 ping 64 ------- 3 2.0 4.0 -1 0
- 0.111512 5 4 ping 64 ------- 3 2.0 4.0 -1 0
r 0.111512 3 5 ping 64 ------- 4 3.0 4.0 -1 1
+ 0.111512 5 4 ping 64 ------- 4 3.0 4.0 -1 1
+ 0.112 2 5 ping 64 ------- 3 2.0 4.0 -1 22
- 0.112 2 5 ping 64 ------- 3 2.0 4.0 -1 22
+ 0.112 3 5 ping 64 ------- 4 3.0 4.0 -1 23
- 0.112 3 5 ping 64 ------- 4 3.0 4.0 -1 23
- 0.112024 5 4 ping 64 ------- 4 3.0 4.0 -1 1
r 0.112512 2 5 ping 64 ------- 3 2.0 4.0 -1 2
+ 0.112512 5 4 ping 64 ------- 3 2.0 4.0 -1 2
r 0.112512 3 5 ping 64 ------- 4 3.0 4.0 -1 3
+ 0.112512 5 4 ping 64 ------- 4 3.0 4.0 -1 3
- 0.112536 5 4 ping 64 ------- 3 2.0 4.0 -1 2
+ 0.113 2 5 ping 64 ------- 3 2.0 4.0 -1 24
- 0.113 2 5 ping 64 ------- 3 2.0 4.0 -1 24
+ 0.113 3 5 ping 64 ------- 4 3.0 4.0 -1 25
- 0.113 3 5 ping 64 ------- 4 3.0 4.0 -1 25
- 0.113048 5 4 ping 64 ------- 4 3.0 4.0 -1 3
r 0.113512 2 5 ping 64 ------- 3 2.0 4.0 -1 4
+ 0.113512 5 4 ping 64 ------- 3 2.0 4.0 -1 4
r 0.113512 3 5 ping 64 ------- 4 3.0 4.0 -1 5
+ 0.113512 5 4 ping 64 ------- 4 3.0 4.0 -1 5
- 0.11356 5 4 ping 64 ------- 3 2.0 4.0 -1 4
+ 0.114 2 5 ping 64 ------- 3 2.0 4.0 -1 26
- 0.114 2 5 ping 64 ------- 3 2.0 4.0 -1 26
+ 0.114 3 5 ping 64 ------- 4 3.0 4.0 -1 27
- 0.114 3 5 ping 64 ------- 4 3.0 4.0 -1 27
- 0.114072 5 4 ping 64 ------- 4 3.0 4.0 -1 5
r 0.114512 2 5 ping 64 ------- 3 2.0 4.0 -1 6
+ 0.114512 5 4 ping 64 ------- 3 2.0 4.0 -1 6
r 0.114512 3 5 ping 64 ------- 4 3.0 4.0 -1 7
+ 0.114512 5 4 ping 64 ------- 4 3.0 4.0 -1 7
- 0.114584 5 4 ping 64 ------- 3 2.0 4.0 -1 6
+ 0.115 2 5 ping 64 ------- 3 2.0 4.0 -1 28
- 0.115 2 5 ping 64 ------- 3 2.0 4.0 -1 28
+ 0.115 3 5 ping 64 ------- 4 3.0 4.0 -1 29
- 0.115 3 5 ping 64 ------- 4 3.0 4.0 -1 29
- 0.115096 5 4 ping 64 ------- 4 3.0 4.0 -1 7
r 0.115512 2 5 ping 64 ------- 3 2.0 4.0 -1 8
+ 0.115512 5 4 ping 64 ------- 3 2.0 4.0 -1 8
r 0.115512 3 5 ping 64 ------- 4 3.0 4.0 -1 9
+ 0.115512 5 4 ping 64 ------- 4 3.0 4.0 -1 9
- 0.115608 5 4 ping 64 ------- 3 2.0 4.0 -1 8
+ 0.116 2 5 ping 64 ------- 3 2.0 4.0 -1 30
- 0.116 2 5 ping 64 ------- 3 2.0 4.0 -1 30
+ 0.116 3 5 ping 64 ------- 4 3.0 4.0 -1 31
- 0.116 3 5 ping 64 ------- 4 3.0 4.0 -1 31
- 0.11612 5 4 ping 64 ------- 4 3.0 4.0 -1 9
r 0.116512 2 5 ping 64 ------- 3 2.0 4.0 -1 10
+ 0.116512 5 4 ping 64 ------- 3 2.0 4.0 -1 10
r 0.116512 3 5 ping 64 ------- 4 3.0 4.0 -1 11
+ 0.116512 5 4 ping 64 ------- 4 3.0 4.0 -1 11
- 0.116632 5 4 ping 64 ------- 3 2.0 4.0 -1 10
+ 0.117 2 5 ping 64 ------- 3 2.0 4.0 -1 32
- 0.117 2 5 ping 64 ------- 3 2.0 4.0 -1 32
+ 0.117 3 5 ping 64 ------- 4 3.0 4.0 -1 33
- 0.117 3 5 ping 64 ------- 4 3.0 4.0 -1 33
- 0.117144 5 4 ping 64 ------- 4 3.0 4.0 -1 11
r 0.117512 2 5 ping 64 ------- 3 2.0 4.0 -1 12
+ 0.117512 5 4 ping 64 ------- 3 2.0 4.0 -1 12
r 0.117512 3 5 ping 64 ------- 4 3.0 4.0 -1 13
+ 0.117512 5 4 ping 64 ------- 4 3.0 4.0 -1 13
- 0.117656 5 4 ping 64 ------- 3 2.0 4.0 -1 12
+ 0.118 2 5 ping 64 ------- 3 2.0 4.0 -1 34
- 0.118 2 5 ping 64 ------- 3 2.0 4.0 -1 34
+ 0.118 3 5 ping 64 ------- 4 3.0 4.0 -1 35
- 0.118 3 5 ping 64 ------- 4 3.0 4.0 -1 35
- 0.118168 5 4 ping 64 ------- 4 3.0 4.0 -1 13
r 0.118512 2 5 ping 64 ------- 3 2.0 4.0 -1 14
+ 0.118512 5 4 ping 64 ------- 3 2.0 4.0 -1 14
r 0.118512 3 5 ping 64 ------- 4 3.0 4.0 -1 15
+ 0.118512 5 4 ping 64 ------- 4 3.0 4.0 -1 15
- 0.11868 5 4 ping 64 ------- 3 2.0 4.0 -1 14
+ 0.119 2 5 ping 64 ------- 3 2.0 4.0 -1 36
- 0.119 2 5 ping 64 ------- 3 2.0 4.0 -1 36
+ 0.119 3 5 ping 64 ------- 4 3.0 4.0 -1 37
- 0.119 3 5 ping 64 ------- 4 3.0 4.0 -1 37
- 0.119192 5 4 ping 64 ------- 4 3.0 4.0 -1 15
r 0.119512 2 5 ping 64 ------- 3 2.0 4.0 -1 16
+ 0.119512 5 4 ping 64 ------- 3 2.0 4.0 -1 16
r 0.119512 3 5 ping 64 ------- 4 3.0 4.0 -1 17
+ 0.119512 5 4 ping 64 ------- 4 3.0 4.0 -1 17
- 0.119704 5 4 ping 64 ------- 3 2.0 4.0 -1 16
+ 0.12 2 5 ping 64 ------- 3 2.0 4.0 -1 38
- 0.12 2 5 ping 64 ------- 3 2.0 4.0 -1 38
+ 0.12 3 5 ping 64 ------- 4 3.0 4.0 -1 39
- 0.12 3 5 ping 64 ------- 4 3.0 4.0 -1 39
- 0.120216 5 4 ping 64 ------- 4 3.0 4.0 -1 17
r 0.120512 2 5 ping 64 ------- 3 2.0 4.0 -1 18
+ 0.120512 5 4 ping 64 ------- 3 2.0 4.0 -1 18
r 0.120512 3 5 ping 64 ------- 4 3.0 4.0 -1 19
+ 0.120512 5 4 ping 64 ------- 4 3.0 4.0 -1 19
- 0.120728 5 4 ping 64 ------- 3 2.0 4.0 -1 18
+ 0.121 2 5 ping 64 ------- 3 2.0 4.0 -1 40
- 0.121 2 5 ping 64 ------- 3 2.0 4.0 -1 40
+ 0.121 3 5 ping 64 ------- 4 3.0 4.0 -1 41
- 0.121 3 5 ping 64 ------- 4 3.0 4.0 -1 41
- 0.12124 5 4 ping 64 ------- 4 3.0 4.0 -1 19
r 0.121512 2 5 ping 64 ------- 3 2.0 4.0 -1 20
+ 0.121512 5 4 ping 64 ------- 3 2.0 4.0 -1 20
r 0.121512 3 5 ping 64 ------- 4 3.0 4.0 -1 21
+ 0.121512 5 4 ping 64 ------- 4 3.0 4.0 -1 21
- 0.121752 5 4 ping 64 ------- 3 2.0 4.0 -1 20
+ 0.122 2 5 ping 64 ------- 3 2.0 4.0 -1 42
- 0.122 2 5 ping 64 ------- 3 2.0 4.0 -1 42
+ 0.122 3 5 ping 64 ------- 4 3.0 4.0 -1 43
- 0.122 3 5 ping 64 ------- 4 3.0 4.0 -1 43
r 0.122024 5 4 ping 64 ------- 3 2.0 4.0 -1 0
+ 0.122024 4 5 ping 64 ------- 5 4.0 3.0 -1 44
- 0.122024 4 5 ping 64 ------- 5 4.0 3.0 -1 44
- 0.122264 5 4 ping 64 ------- 4 3.0 4.0 -1 21
r 0.122512 2 5 ping 64 ------- 3 2.0 4.0 -1 22
+ 0.122512 5 4 ping 64 ------- 3 2.0 4.0 -1 22
r 0.122512 3 5 ping 64 ------- 4 3.0 4.0 -1 23
+ 0.122512 5 4 ping 64 ------- 4 3.0 4.0 -1 23
r 0.122536 5 4 ping 64 ------- 4 3.0 4.0 -1 1
+ 0.122536 4 5 ping 64 ------- 5 4.0 3.0 -1 45
- 0.122536 4 5 ping 64 ------- 5 4.0 3.0 -1 45
- 0.122776 5 4 ping 64 ------- 3 2.0 4.0 -1 22
+ 0.123 2 5 ping 64 ------- 3 2.0 4.0 -1 46
- 0.123 2 5 ping 64 ------- 3 2.0 4.0 -1 46
+ 0.123 3 5 ping 64 ------- 4 3.0 4.0 -1 47
- 0.123 3 5 ping 64 ------- 4 3.0 4.0 -1 47
r 0.123048 5 4 ping 64 ------- 3 2.0 4.0 -1 2
+ 0.123048 4 5 ping 64 ------- 5 4.0 3.0 -1 48
- 0.123048 4 5 ping 64 ------- 5 4.0 3.0 -1 48
- 0.123288 5 4 ping 64 ------- 4 3.0 4.0 -1 23
r 0.123512 2 5 ping 64 ------- 3 2.0 4.0 -1 24
+ 0.123512 5 4 ping 64 ------- 3 2.0 4.0 -1 24
r 0.123512 3 5 ping 64 ------- 4 3.0 4.0 -1 25
+ 0.123512 5 4 ping 64 ------- 4 3.0 4.0 -1 25
r 0.12356 5 4 ping 64 ------- 4 3.0 4.0 -1 3
+ 0.12356 4 5 ping 64 ------- 5 4.0 3.0 -1 49
- 0.12356 4 5 ping 64 ------- 5 4.0 3.0 -1 49
- 0.1238 5 4 ping 64 ------- 3 2.0 4.0 -1 24
+ 0.124 2 5 ping 64 ------- 3 2.0 4.0 -1 50
- 0.124 2 5 ping 64 ------- 3 2.0 4.0 -1 50
+ 0.124 3 5 ping 64 ------- 4 3.0 4.0 -1 51
- 0.124 3 5 ping 64 ------- 4 3.0 4.0 -1 51
r 0.124072 5 4 ping 64 ------- 3 2.0 4.0 -1 4
+ 0.124072 4 5 ping 64 ------- 5 4.0 3.0 -1 52
- 0.124072 4 5 ping 64 ------- 5 4.0 3.0 -1 52
- 0.124312 5 4 ping 64 ------- 4 3.0 4.0 -1 25
r 0.124512 2 5 ping 64 ------- 3 2.0 4.0 -1 26
+ 0.124512 5 4 ping 64 ------- 3 2.0 4.0 -1 26
r 0.124512 3 5 ping 64 ------- 4 3.0 4.0 -1 27
+ 0.124512 5 4 ping 64 ------- 4 3.0 4.0 -1 27
r 0.124584 5 4 ping 64 ------- 4 3.0 4.0 -1 5
+ 0.124584 4 5 ping 64 ------- 5 4.0 3.0 -1 53
- 0.124584 4 5 ping 64 ------- 5 4.0 3.0 -1 53
- 0.124824 5 4 ping 64 ------- 3 2.0 4.0 -1 26
+ 0.125 2 5 ping 64 ------- 3 2.0 4.0 -1 54
- 0.125 2 5 ping 64 ------- 3 2.0 4.0 -1 54
+ 0.125 3 5 ping 64 ------- 4 3.0 4.0 -1 55
- 0.125 3 5 ping 64 ------- 4 3.0 4.0 -1 55
r 0.125096 5 4 ping 64 ------- 3 2.0 4.0 -1 6
+ 0.125096 4 5 ping 64 ------- 5 4.0 3.0 -1 56
- 0.125096 4 5 ping 64 ------- 5 4.0 3.0 -1 56
- 0.125336 5 4 ping 64 ------- 4 3.0 4.0 -1 27
r 0.125512 2 5 ping 64 ------- 3 2.0 4.0 -1 28
+ 0.125512 5 4 ping 64 ------- 3 2.0 4.0 -1 28
r 0.125512 3 5 ping 64 ------- 4 3.0 4.0 -1 29
+ 0.125512 5 4 ping 64 ------- 4 3.0 4.0 -1 29
r 0.125608 5 4 ping 64 ------- 4 3.0 4.0 -1 7
+ 0.125608 4 5 ping 64 ------- 5 4.0 3.0 -1 57
- 0.125608 4 5 ping 64 ------- 5 4.0 3.0 -1 57
- 0.125848 5 4 ping 64 ------- 3 2.0 4.0 -1 28
+ 0.126 2 5 ping 64 ------- 3 2.0 4.0 -1 58
- 0.126 2 5 ping 64 ------- 3 2.0 4.0 -1 58
+ 0.126 3 5 ping 64 ------- 4 3.0 4.0 -1 59
- 0.126 3 5 ping 64 ------- 4 3.0 4.0 -1 59
r 0.12612 5 4 ping 64 ------- 3 2.0 4.0 -1 8
+ 0.12612 4 5 ping 64 ------- 5 4.0 3.0 -1 60
- 0.12612 4 5 ping 64 ------- 5 4.0 3.0 -1 60
- 0.12636 5 4 ping 64 ------- 4 3.0 4.0 -1 29
r 0.126512 2 5 ping 64 ------- 3 2.0 4.0 -1 30
+ 0.126512 5 4 ping 64 ------- 3 2.0 4.0 -1 30
r 0.126512 3 5 ping 64 ------- 4 3.0 4.0 -1 31
+ 0.126512 5 4 ping 64 ------- 4 3.0 4.0 -1 31
r 0.126632 5 4 ping 64 ------- 4 3.0 4.0 -1 9
+ 0.126632 4 5 ping 64 ------- 5 4.0 3.0 -1 61
- 0.126632 4 5 ping 64 ------- 5 4.0 3.0 -1 61
- 0.126872 5 4 ping 64 ------- 3 2.0 4.0 -1 30
+ 0.127 2 5 ping 64 ------- 3 2.0 4.0 -1 62
- 0.127 2 5 ping 64 ------- 3 2.0 4.0 -1 62
+ 0.127 3 5 ping 64 ------- 4 3.0 4.0 -1 63
- 0.127 3 5 ping 64 ------- 4 3.0 4.0 -1 63
r 0.127144 5 4 ping 64 ------- 3 2.0 4.0 -1 10
+ 0.127144 4 5 ping 64 ------- 5 4.0 3.0 -1 64
- 0.127144 4 5 ping 64 ------- 5 4.0 3.0 -1 64
- 0.127384 5 4 ping 64 ------- 4 3.0 4.0 -1 31
r 0.127512 2 5 ping 64 ------- 3 2.0 4.0 -1 32
+ 0.127512 5 4 ping 64 ------- 3 2.0 4.0 -1 32
r 0.127512 3 5 ping 64 ------- 4 3.0 4.0 -1 33
+ 0.127512 5 4 ping 64 ------- 4 3.0 4.0 -1 33
r 0.127656 5 4 ping 64 ------- 4 3.0 4.0 -1 11
+ 0.127656 4 5 ping 64 ------- 5 4.0 3.0 -1 65
- 0.127656 4 5 ping 64 ------- 5 4.0 3.0 -1 65
- 0.127896 5 4 ping 64 ------- 3 2.0 4.0 -1 32
+ 0.128 2 5 ping 64 ------- 3 2.0 4.0 -1 66
- 0.128 2 5 ping 64 ------- 3 2.0 4.0 -1 66
+ 0.128 3 5 ping 64 ------- 4 3.0 4.0 -1 67
- 0.128 3 5 ping 64 ------- 4 3.0 4.0 -1 67
r 0.128168 5 4 ping 64 ------- 3 2.0 4.0 -1 12
+ 0.128168 4 5 ping 64 ------- 5 4.0 3.0 -1 68
- 0.128168 4 5 ping 64 ------- 5 4.0 3.0 -1 68
- 0.128408 5 4 ping 64 ------- 4 3.0 4.0 -1 33
r 0.128512 2 5 ping 64 ------- 3 2.0 4.0 -1 34
+ 0.128512 5 4 ping 64 ------- 3 2.0 4.0 -1 34
r 0.128512 3 5 ping 64 ------- 4 3.0 4.0 -1 35
+ 0.128512 5 4 ping 64 ------- 4 3.0 4.0 -1 35
r 0.12868 5 4 ping 64 ------- 4 3.0 4.0 -1 13
+ 0.12868 4 5 ping 64 ------- 5 4.0 3.0 -1 69
- 0.12868 4 5 ping 64 ------- 5 4.0 3.0 -1 69
- 0.12892 5 4 ping 64 ------- 3 2.0 4.0 -1 34
+ 0.129 2 5 ping 64 ------- 3 2.0 4.0 -1 70
- 0.129 2 5 ping 64 ------- 3 2.0 4.0 -1 70
+ 0.129 3 5 ping 64 ------- 4 3.0 4.0 -1 71
- 0.129 3 5 ping 64 ------- 4 3.0 4.0 -1 71
r 0.129192 5 4 ping 64 ------- 3 2.0 4.0 -1 14
+ 0.129192 4 5 ping 64 ------- 5 4.0 3.0 -1 72
- 0.129192 4 5 ping 64 ------- 5 4.0 3.0 -1 72
- 0.129432 5 4 ping 64 ------- 4 3.0 4.0 -1 35
r 0.129512 2 5 ping 64 ------- 3 2.0 4.0 -1 36
+ 0.129512 5 4 ping 64 ------- 3 2.0 4.0 -1 36
r 0.129512 3 5 ping 64 ------- 4 3.0 4.0 -1 37
+ 0.129512 5 4 ping 64 ------- 4 3.0 4.0 -1 37
r 0.129704 5 4 ping 64 ------- 4 3.0 4.0 -1 15
+ 0.129704 4 5 ping 64 ------- 5 4.0 3.0 -1 73
- 0.129704 4 5 ping 64 ------- 5 4.0 3.0 -1 73
- 0.129944 5 4 ping 64 ------- 3 2.0 4.0 -1 36
+ 0.13 2 5 ping 64 ------- 3 2.0 4.0 -1 74
- 0.13 2 5 ping 64 ------- 3 2.0 4.0 -1 74
+ 0.13 3 5 ping 64 ------- 4 3.0 4.0 -1 75
- 0.13 3 5 ping 64 ------- 4 3.0 4.0 -1 75
r 0.130216 5 4 ping 64 ------- 3 2.0 4.0 -1 16
+ 0.130216 4 5 ping 64 ------- 5 4.0 3.0 -1 76
- 0.130216 4 5 ping 64 ------- 5 4.0 3.0 -1 76
- 0.130456 5 4 ping 64 ------- 4 3.0 4.0 -1 37
r 0.130512 2 5 ping 64 ------- 3 2.0 4.0 -1 38
+ 0.130512 5 4 ping 64 ------- 3 2.0 4.0 -1 38
r 0.130512 3 5 ping 64 ------- 4 3.0 4.0 -1 39
+ 0.130512 5 4 ping 64 ------- 4 3.0 4.0 -1 39
r 0.130728 5 4 ping 64 ------- 4 3.0 4.0 -1 17
+ 0.130728 4 5 ping 64 ------- 5 4.0 3.0 -1 77
- 0.130728 4 5 ping 64 ------- 5 4.0 3.0 -1 77
- 0.130968 5 4 ping 64 ------- 3 2.0 4.0 -1 38
+ 0.131 2 5 ping 64 ------- 3 2.0 4.0 -1 78
- 0.131 2 5 ping 64 ------- 3 2.0 4.0 -1 78
+ 0.131 3 5 ping 64 ------- 4 3.0 4.0 -1 79
- 0.131 3 5 ping 64 ------- 4 3.0 4.0 -1 79
r 0.13124 5 4 ping 64 ------- 3 2.0 4.0 -1 18
+ 0.13124 4 5 ping 64 ------- 5 4.0 3.0 -1 80
- 0.13124 4 5 ping 64 ------- 5 4.0 3.0 -1 80
- 0.13148 5 4 ping 64 ------- 4 3.0 4.0 -1 39
r 0.131512 2 5 ping 64 ------- 3 2.0 4.0 -1 40
+ 0.131512 5 4 ping 64 ------- 3 2.0 4.0 -1 40
r 0.131512 3 5 ping 64 ------- 4 3.0 4.0 -1 41
+ 0.131512 5 4 ping 64 ------- 4 3.0 4.0 -1 41
r 0.131752 5 4 ping 64 ------- 4 3.0 4.0 -1 19
+ 0.131752 4 5 ping 64 ------- 5 4.0 3.0 -1 81
- 0.131752 4 5 ping 64 ------- 5 4.0 3.0 -1 81
- 0.131992 5 4 ping 64 ------- 3 2.0 4.0 -1 40
+ 0.132 2 5 ping 64 ------- 3 2.0 4.0 -1 82
- 0.132 2 5 ping 64 ------- 3 2.0 4.0 -1 82
+ 0.132 3 5 ping 64 ------- 4 3.0 4.0 -1 83
- 0.132 3 5 ping 64 ------- 4 3.0 4.0 -1 83
r 0.132264 5 4 ping 64 ------- 3 2.0 4.0 -1 20
+ 0.132264 4 5 ping 64 ------- 5 4.0 3.0 -1 84
- 0.132264 4 5 ping 64 ------- 5 4.0 3.0 -1 84
- 0.132504 5 4 ping 64 ------- 4 3.0 4.0 -1 41
r 0.132512 2 5 ping 64 ------- 3 2.0 4.0 -1 42
+ 0.132512 5 4 ping 64 ------- 3 2.0 4.0 -1 42
r 0.132512 3 5 ping 64 ------- 4 3.0 4.0 -1 43
+ 0.132512 5 4 ping 64 ------- 4 3.0 4.0 -1 43
r 0.132536 4 5 ping 64 ------- 5 4.0 3.0 -1 44
+ 0.132536 5 3 ping 64 ------- 5 4.0 3.0 -1 44
- 0.132536 5 3 ping 64 ------- 5 4.0 3.0 -1 44
r 0.132776 5 4 ping 64 ------- 4 3.0 4.0 -1 21
+ 0.132776 4 5 ping 64 ------- 5 4.0 3.0 -1 85
- 0.132776 4 5 ping 64 ------- 5 4.0 3.0 -1 85
+ 0.133 2 5 ping 64 ------- 3 2.0 4.0 -1 86
- 0.133 2 5 ping 64 ------- 3 2.0 4.0 -1 86
+ 0.133 3 5 ping 64 ------- 4 3.0 4.0 -1 87
- 0.133 3 5 ping 64 ------- 4 3.0 4.0 -1 87
- 0.133016 5 4 ping 64 ------- 3 2.0 4.0 -1 42
r 0.133048 4 5 ping 64 ------- 5 4.0 3.0 -1 45
+ 0.133048 5 3 ping 64 ------- 5 4.0 3.0 -1 45
- 0.133048 5 3 ping 64 ------- 5 4.0 3.0 -1 45
r 0.133288 5 4 ping 64 ------- 3 2.0 4.0 -1 22
+ 0.133288 4 5 ping 64 ------- 5 4.0 3.0 -1 88
- 0.133288 4 5 ping 64 ------- 5 4.0 3.0 -1 88
r 0.133512 2 5 ping 64 ------- 3 2.0 4.0 -1 46
+ 0.133512 5 4 ping 64 ------- 3 2.0 4.0 -1 46
r 0.133512 3 5 ping 64 ------- 4 3.0 4.0 -1 47
+ 0.133512 5 4 ping 64 ------- 4 3.0 4.0 -1 47
- 0.133528 5 4 ping 64 ------- 4 3.0 4.0 -1 43
r 0.13356 4 5 ping 64 ------- 5 4.0 3.0 -1 48
+ 0.13356 5 3 ping 64 ------- 5 4.0 3.0 -1 48
- 0.13356 5 3 ping 64 ------- 5 4.0 3.0 -1 48
r 0.1338 5 4 ping 64 ------- 4 3.0 4.0 -1 23
+ 0.1338 4 5 ping 64 ------- 5 4.0 3.0 -1 89
- 0.1338 4 5 ping 64 ------- 5 4.0 3.0 -1 89
+ 0.134 2 5 ping 64 ------- 3 2.0 4.0 -1 90
- 0.134 2 5 ping 64 ------- 3 2.0 4.0 -1 90
+ 0.134 3 5 ping 64 ------- 4 3.0 4.0 -1 91
- 0.134 3 5 ping 64 ------- 4 3.0 4.0 -1 91
- 0.13404 5 4 ping 64 ------- 3 2.0 4.0 -1 46
r 0.134072 4 5 ping 64 ------- 5 4.0 3.0 -1 49
+ 0.134072 5 3 ping 64 ------- 5 4.0 3.0 -1 49
- 0.134072 5 3 ping 64 ------- 5 4.0 3.0 -1 49
r 0.134312 5 4 ping 64 ------- 3 2.0 4.0 -1 24
+ 0.134312 4 5 ping 64 ------- 5 4.0 3.0 -1 92
- 0.134312 4 5 ping 64 ------- 5 4.0 3.0 -1 92
r 0.134512 2 5 ping 64 ------- 3 2.0 4.0 -1 50
+ 0.134512 5 4 ping 64 ------- 3 2.0 4.0 -1 50
r 0.134512 3 5 ping 64 ------- 4 3.0 4.0 -1 51
+ 0.134512 5 4 ping 64 ------- 4 3.0 4.0 -1 51
- 0.134552 5 4 ping 64 ------- 4 3.0 4.0 -1 47
r 0.134584 4 5 ping 64 ------- 5 4.0 3.0 -1 52
+ 0.134584 5 3 ping 64 ------- 5 4.0 3.0 -1 52
- 0.134584 5 3 ping 64 ------- 5 4.0 3.0 -1 52
r 0.134824 5 4 ping 64 ------- 4 3.0 4.0 -1 25
+ 0.134824 4 5 ping 64 ------- 5 4.0 3.0 -1 93
- 0.134824 4 5 ping 64 ------- 5 4.0 3.0 -1 93
+ 0.135 2 5 ping 64 ------- 3 2.0 4.0 -1 94
- 0.135 2 5 ping 64 ------- 3 2.0 4.0 -1 94
+ 0.135 3 5 ping 64 ------- 4 3.0 4.0 -1 95
- 0.135 3 5 ping 64 ------- 4 3.0 4.0 -1 95
- 0.135064 5 4 ping 64 ------- 3 2.0 4.0 -1 50
r 0.135096 4 5 ping 64 ------- 5 4.0 3.0 -1 53
+ 0.135096 5 3 ping 64 ------- 5 4.0 3.0 -1 53
- 0.135096 5 3 ping 64 ------- 5 4.0 3.0 -1 53
r 0.135336 5 4 ping 64 ------- 3 2.0 4.0 -1 26
+ 0.135336 4 5 ping 64 ------- 5 4.0 3.0 -1 96
- 0.135336 4 5 ping 64 ------- 5 4.0 3.0 -1 96
r 0.135512 2 5 ping 64 ------- 3 2.0 4.0 -1 54
+ 0.135512 5 4 ping 64 ------- 3 2.0 4.0 -1 54
r 0.135512 3 5 ping 64 ------- 4 3.0 4.0 -1 55
+ 0.135512 5 4 ping 64 ------- 4 3.0 4.0 -1 55
- 0.135576 5 4 ping 64 ------- 4 3.0 4.0 -1 51
r 0.135608 4 5 ping 64 ------- 5 4.0 3.0 -1 56
+ 0.135608 5 3 ping 64 ------- 5 4.0 3.0 -1 56
- 0.135608 5 3 ping 64 ------- 5 4.0 3.0 -1 56
r 0.135848 5 4 ping 64 ------- 4 3.0 4.0 -1 27
+ 0.135848 4 5 ping 64 ------- 5 4.0 3.0 -1 97
- 0.135848 4 5 ping 64 ------- 5 4.0 3.0 -1 97
+ 0.136 2 5 ping 64 ------- 3 2.0 4.0 -1 98
- 0.136 2 5 ping 64 ------- 3 2.0 4.0 -1 98
+ 0.136 3 5 ping 64 ------- 4 3.0 4.0 -1 99
- 0.136 3 5 ping 64 ------- 4 3.0 4.0 -1 99
- 0.136088 5 4 ping 64 ------- 3 2.0 4.0 -1 54
r 0.13612 4 5 ping 64 ------- 5 4.0 3.0 -1 57
+ 0.13612 5 3 ping 64 ------- 5 4.0 3.0 -1 57
- 0.13612 5 3 ping 64 ------- 5 4.0 3.0 -1 57
r 0.13636 5 4 ping 64 ------- 3 2.0 4.0 -1 28
+ 0.13636 4 5 ping 64 ------- 5 4.0 3.0 -1 100
- 0.13636 4 5 ping 64 ------- 5 4.0 3.0 -1 100
r 0.136512 2 5 ping 64 ------- 3 2.0 4.0 -1 58
+ 0.136512 5 4 ping 64 ------- 3 2.0 4.0 -1 58
r 0.136512 3 5 ping 64 ------- 4 3.0 4.0 -1 59
+ 0.136512 5 4 ping 64 ------- 4 3.0 4.0 -1 59
- 0.1366 5 4 ping 64 ------- 4 3.0 4.0 -1 55
r 0.136632 4 5 ping 64 ------- 5 4.0 3.0 -1 60
+ 0.136632 5 3 ping 64 ------- 5 4.0 3.0 -1 60
- 0.136632 5 3 ping 64 ------- 5 4.0 3.0 -1 60
r 0.136872 5 4 ping 64 ------- 4 3.0 4.0 -1 29
+ 0.136872 4 5 ping 64 ------- 5 4.0 3.0 -1 101
- 0.136872 4 5 ping 64 ------- 5 4.0 3.0 -1 101
+ 0.137 2 5 ping 64 ------- 3 2.0 4.0 -1 102
- 0.137 2 5 ping 64 ------- 3 2.0 4.0 -1 102
+ 0.137 3 5 ping 64 ------- 4 3.0 4.0 -1 103
- 0.137 3 5 ping 64 ------- 4 3.0 4.0 -1 103
- 0.137112 5 4 ping 64 ------- 3 2.0 4.0 -1 58
r 0.137144 4 5 ping 64 ------- 5 4.0 3.0 -1 61
+ 0.137144 5 3 ping 64 ------- 5 4.0 3.0 -1 61
- 0.137144 5 3 ping 64 ------- 5 4.0 3.0 -1 61
r 0.137384 5 4 ping 64 ------- 3 2.0 4.0 -1 30
+ 0.137384 4 5 ping 64 ------- 5 4.0 3.0 -1 104
- 0.137384 4 5 ping 64 ------- 5 4.0 3.0 -1 104
r 0.137512 2 5 ping 64 ------- 3 2.0 4.0 -1 62
+ 0.137512 5 4 ping 64 ------- 3 2.0 4.0 -1 62
r 0.137512 3 5 ping 64 ------- 4 3.0 4.0 -1 63
+ 0.137512 5 4 ping 64 ------- 4 3.0 4.0 -1 63
- 0.137624 5 4 ping 64 ------- 4 3.0 4.0 -1 59
r 0.137656 4 5 ping 64 ------- 5 4.0 3.0 -1 64
+ 0.137656 5 3 ping 64 ------- 5 4.0 3.0 -1 64
- 0.137656 5 3 ping 64 ------- 5 4.0 3.0 -1 64
r 0.137896 5 4 ping 64 ------- 4 3.0 4.0 -1 31
+ 0.137896 4 5 ping 64 ------- 5 4.0 3.0 -1 105
- 0.137896 4 5 ping 64 ------- 5 4.0 3.0 -1 105
+ 0.138 2 5 ping 64 ------- 3 2.0 4.0 -1 106
- 0.138 2 5 ping 64 ------- 3 2.0 4.0 -1 106
+ 0.138 3 5 ping 64 ------- 4 3.0 4.0 -1 107
- 0.138 3 5 ping 64 ------- 4 3.0 4.0 -1 107
- 0.138136 5 4 ping 64 ------- 3 2.0 4.0 -1 62
r 0.138168 4 5 ping 64 ------- 5 4.0 3.0 -1 65
+ 0.138168 5 3 ping 64 ------- 5 4.0 3.0 -1 65
- 0.138168 5 3 ping 64 ------- 5 4.0 3.0 -1 65
r 0.138408 5 4 ping 64 ------- 3 2.0 4.0 -1 32
+ 0.138408 4 5 ping 64 ------- 5 4.0 3.0 -1 108
- 0.138408 4 5 ping 64 ------- 5 4.0 3.0 -1 108
r 0.138512 2 5 ping 64 ------- 3 2.0 4.0 -1 66
+ 0.138512 5 4 ping 64 ------- 3 2.0 4.0 -1 66
r 0.138512 3 5 ping 64 ------- 4 3.0 4.0 -1 67
+ 0.138512 5 4 ping 64 ------- 4 3.0 4.0 -1 67
- 0.138648 5 4 ping 64 ------- 4 3.0 4.0 -1 63
r 0.13868 4 5 ping 64 ------- 5 4.0 3.0 -1 68
+ 0.13868 5 3 ping 64 ------- 5 4.0 3.0 -1 68
- 0.13868 5 3 ping 64 ------- 5 4.0 3.0 -1 68
r 0.13892 5 4 ping 64 ------- 4 3.0 4.0 -1 33
+ 0.13892 4 5 ping 64 ------- 5 4.0 3.0 -1 109
- 0.13892 4 5 ping 64 ------- 5 4.0 3.0 -1 109
+ 0.139 2 5 ping 64 ------- 3 2.0 4.0 -1 110
- 0.139 2 5 ping 64 ------- 3 2.0 4.0 -1 110
+ 0.139 3 5 ping 64 ------- 4 3.0 4.0 -1 111
- 0.139 3 5 ping 64 ------- 4 3.0 4.0 -1 111
- 0.13916 5 4 ping 64 ------- 3 2.0 4.0 -1 66
r 0.139192 4 5 ping 64 ------- 5 4.0 3.0 -1 69
+ 0.139192 5 3 ping 64 ------- 5 4.0 3.0 -1 69
- 0.139192 5 3 ping 64 ------- 5 4.0 3.0 -1 69
r 0.139432 5 4 ping 64 ------- 3 2.0 4.0 -1 34
+ 0.139432 4 5 ping 64 ------- 5 4.0 3.0 -1 112
- 0.139432 4 5 ping 64 ------- 5 4.0 3.0 -1 112
r 0.139512 2 5 ping 64 ------- 3 2.0 4.0 -1 70
+ 0.139512 5 4 ping 64 ------- 3 2.0 4.0 -1 70
r 0.139512 3 5 ping 64 ------- 4 3.0 4.0 -1 71
+ 0.139512 5 4 ping 64 ------- 4 3.0 4.0 -1 71
- 0.139672 5 4 ping 64 ------- 4 3.0 4.0 -1 67
r 0.139704 4 5 ping 64 ------- 5 4.0 3.0 -1 72
+ 0.139704 5 3 ping 64 ------- 5 4.0 3.0 -1 72
- 0.139704 5 3 ping 64 ------- 5 4.0 3.0 -1 72
r 0.139944 5 4 ping 64 ------- 4 3.0 4.0 -1 35
+ 0.139944 4 5 ping 64 ------- 5 4.0 3.0 -1 113
- 0.139944 4 5 ping 64 ------- 5 4.0 3.0 -1 113
+ 0.14 2 5 ping 64 ------- 3 2.0 4.0 -1 114
- 0.14 2 5 ping 64 ------- 3 2.0 4.0 -1 114
+ 0.14 3 5 ping 64 ------- 4 3.0 4.0 -1 115
- 0.14 3 5 ping 64 ------- 4 3.0 4.0 -1 115
- 0.140184 5 4 ping 64 ------- 3 2.0 4.0 -1 70
r 0.140216 4 5 ping 64 ------- 5 4.0 3.0 -1 73
+ 0.140216 5 3 ping 64 ------- 5 4.0 3.0 -1 73
- 0.140216 5 3 ping 64 ------- 5 4.0 3.0 -1 73
r 0.140456 5 4 ping 64 ------- 3 2.0 4.0 -1 36
+ 0.140456 4 5 ping 64 ------- 5 4.0 3.0 -1 116
- 0.140456 4 5 ping 64 ------- 5 4.0 3.0 -1 116
r 0.140512 2 5 ping 64 ------- 3 2.0 4.0 -1 74
+ 0.140512 5 4 ping 64 ------- 3 2.0 4.0 -1 74
r 0.140512 3 5 ping 64 ------- 4 3.0 4.0 -1 75
+ 0.140512 5 4 ping 64 ------- 4 3.0 4.0 -1 75
- 0.140696 5 4 ping 64 ------- 4 3.0 4.0 -1 71
r 0.140728 4 5 ping 64 ------- 5 4.0 3.0 -1 76
+ 0.140728 5 3 ping 64 ------- 5 4.0 3.0 -1 76
- 0.140728 5 3 ping 64 ------- 5 4.0 3.0 -1 76
r 0.140968 5 4 ping 64 ------- 4 3.0 4.0 -1 37
+ 0.140968 4 5 ping 64 ------- 5 4.0 3.0 -1 117
- 0.140968 4 5 ping 64 ------- 5 4.0 3.0 -1 117
+ 0.141 2 5 ping 64 ------- 3 2.0 4.0 -1 118
- 0.141 2 5 ping 64 ------- 3 2.0 4.0 -1 118
+ 0.141 3 5 ping 64 ------- 4 3.0 4.0 -1 119
- 0.141 3 5 ping 64 ------- 4 3.0 4.0 -1 119
- 0.141208 5 4 ping 64 ------- 3 2.0 4.0 -1 74
r 0.14124 4 5 ping 64 ------- 5 4.0 3.0 -1 77
+ 0.14124 5 3 ping 64 ------- 5 4.0 3.0 -1 77
- 0.14124 5 3 ping 64 ------- 5 4.0 3.0 -1 77
r 0.14148 5 4 ping 64 ------- 3 2.0 4.0 -1 38
+ 0.14148 4 5 ping 64 ------- 5 4.0 3.0 -1 120
- 0.14148 4 5 ping 64 ------- 5 4.0 3.0 -1 120
r 0.141512 2 5 ping 64 ------- 3 2.0 4.0 -1 78
+ 0.141512 5 4 ping 64 ------- 3 2.0 4.0 -1 78
r 0.141512 3 5 ping 64 ------- 4 3.0 4.0 -1 79
+ 0.141512 5 4 ping 64 ------- 4 3.0 4.0 -1 79
- 0.14172 5 4 ping 64 ------- 4 3.0 4.0 -1 75
r 0.141752 4 5 ping 64 ------- 5 4.0 3.0 -1 80
+ 0.141752 5 3 ping 64 ------- 5 4.0 3.0 -1 80
- 0.141752 5 3 ping 64 ------- 5 4.0 3.0 -1 80
r 0.141992 5 4 ping 64 ------- 4 3.0 4.0 -1 39
+ 0.141992 4 5 ping 64 ------- 5 4.0 3.0 -1 121
- 0.141992 4 5 ping 64 ------- 5 4.0 3.0 -1 121
+ 0.142 2 5 ping 64 ------- 3 2.0 4.0 -1 122
- 0.142 2 5 ping 64 ------- 3 2.0 4.0 -1 122
+ 0.142 3 5 ping 64 ------- 4 3.0 4.0 -1 123
- 0.142 3 5 ping 64 ------- 4 3.0 4.0 -1 123
- 0.142232 5 4 ping 64 ------- 3 2.0 4.0 -1 78
r 0.142264 4 5 ping 64 ------- 5 4.0 3.0 -1 81
+ 0.142264 5 3 ping 64 ------- 5 4.0 3.0 -1 81
- 0.142264 5 3 ping 64 ------- 5 4.0 3.0 -1 81
r 0.142504 5 4 ping 64 ------- 3 2.0 4.0 -1 40
+ 0.142504 4 5 ping 64 ------- 5 4.0 3.0 -1 124
- 0.142504 4 5 ping 64 ------- 5 4.0 3.0 -1 124
r 0.142512 2 5 ping 64 ------- 3 2.0 4.0 -1 82
+ 0.142512 5 4 ping 64 ------- 3 2.0 4.0 -1 82
r 0.142512 3 5 ping 64 ------- 4 3.0 4.0 -1 83
+ 0.142512 5 4 ping 64 ------- 4 3.0 4.0 -1 83
- 0.142744 5 4 ping 64 ------- 4 3.0 4.0 -1 79
r 0.142776 4 5 ping 64 ------- 5 4.0 3.0 -1 84
+ 0.142776 5 3 ping 64 ------- 5 4.0 3.0 -1 84
- 0.142776 5 3 ping 64 ------- 5 4.0 3.0 -1 84
+ 0.143 2 5 ping 64 ------- 3 2.0 4.0 -1 125
- 0.143 2 5 ping 64 ------- 3 2.0 4.0 -1 125
+ 0.143 3 5 ping 64 ------- 4 3.0 4.0 -1 126
- 0.143 3 5 ping 64 ------- 4 3.0 4.0 -1 126
r 0.143016 5 4 ping 64 ------- 4 3.0 4.0 -1 41
+ 0.143016 4 5 ping 64 ------- 5 4.0 3.0 -1 127
- 0.143016 4 5 ping 64 ------- 5 4.0 3.0 -1 127
r 0.143048 5 3 ping 64 ------- 5 4.0 3.0 -1 44
- 0.143256 5 4 ping 64 ------- 3 2.0 4.0 -1 82
r 0.143288 4 5 ping 64 ------- 5 4.0 3.0 -1 85
+ 0.143288 5 3 ping 64 ------- 5 4.0 3.0 -1 85
- 0.143288 5 3 ping 64 ------- 5 4.0 3.0 -1 85
r 0.143512 2 5 ping 64 ------- 3 2.0 4.0 -1 86
+ 0.143512 5 4 ping 64 ------- 3 2.0 4.0 -1 86
r 0.143512 3 5 ping 64 ------- 4 3.0 4.0 -1 87
+ 0.143512 5 4 ping 64 ------- 4 3.0 4.0 -1 87
r 0.143528 5 4 ping 64 ------- 3 2.0 4.0 -1 42
+ 0.143528 4 5 ping 64 ------- 5 4.0 3.0 -1 128
- 0.143528 4 5 ping 64 ------- 5 4.0 3.0 -1 128
r 0.14356 5 3 ping 64 ------- 5 4.0 3.0 -1 45
- 0.143768 5 4 ping 64 ------- 4 3.0 4.0 -1 83
r 0.1438 4 5 ping 64 ------- 5 4.0 3.0 -1 88
+ 0.1438 5 3 ping 64 ------- 5 4.0 3.0 -1 88
- 0.1438 5 3 ping 64 ------- 5 4.0 3.0 -1 88
+ 0.144 2 5 ping 64 ------- 3 2.0 4.0 -1 129
- 0.144 2 5 ping 64 ------- 3 2.0 4.0 -1 129
+ 0.144 3 5 ping 64 ------- 4 3.0 4.0 -1 130
- 0.144 3 5 ping 64 ------- 4 3.0 4.0 -1 130
r 0.14404 5 4 ping 64 ------- 4 3.0 4.0 -1 43
+ 0.14404 4 5 ping 64 ------- 5 4.0 3.0 -1 131
- 0.14404 4 5 ping 64 ------- 5 4.0 3.0 -1 131
r 0.144072 5 3 ping 64 ------- 5 4.0 3.0 -1 48
- 0.14428 5 4 ping 64 ------- 3 2.0 4.0 -1 86
r 0.144312 4 5 ping 64 ------- 5 4.0 3.0 -1 89
+ 0.144312 5 3 ping 64 ------- 5 4.0 3.0 -1 89
- 0.144312 5 3 ping 64 ------- 5 4.0 3.0 -1 89
r 0.144512 2 5 ping 64 ------- 3 2.0 4.0 -1 90
+ 0.144512 5 4 ping 64 ------- 3 2.0 4.0 -1 90
r 0.144512 3 5 ping 64 ------- 4 3.0 4.0 -1 91
+ 0.144512 5 4 ping 64 ------- 4 3.0 4.0 -1 91
r 0.144552 5 4 ping 64 ------- 3 2.0 4.0 -1 46
+ 0.144552 4 5 ping 64 ------- 5 4.0 3.0 -1 132
- 0.144552 4 5 ping 64 ------- 5 4.0 3.0 -1 132
r 0.144584 5 3 ping 64 ------- 5 4.0 3.0 -1 49
- 0.144792 5 4 ping 64 ------- 4 3.0 4.0 -1 87
r 0.144824 4 5 ping 64 ------- 5 4.0 3.0 -1 92
+ 0.144824 5 3 ping 64 ------- 5 4.0 3.0 -1 92
- 0.144824 5 3 ping 64 ------- 5 4.0 3.0 -1 92
+ 0.145 2 5 ping 64 ------- 3 2.0 4.0 -1 133
- 0.145 2 5 ping 64 ------- 3 2.0 4.0 -1 133
+ 0.145 3 5 ping 64 ------- 4 3.0 4.0 -1 134
- 0.145 3 5 ping 64 ------- 4 3.0 4.0 -1 134
r 0.145064 5 4 ping 64 ------- 4 3.0 4.0 -1 47
+ 0.145064 4 5 ping 64 ------- 5 4.0 3.0 -1 135
- 0.145064 4 5 ping 64 ------- 5 4.0 3.0 -1 135
r 0.145096 5 3 ping 64 ------- 5 4.0 3.0 -1 52
- 0.145304 5 4 ping 64 ------- 3 2.0 4.0 -1 90
r 0.145336 4 5 ping 64 ------- 5 4.0 3.0 -1 93
+ 0.145336 5 3 ping 64 ------- 5 4.0 3.0 -1 93
- 0.145336 5 3 ping 64 ------- 5 4.0 3.0 -1 93
r 0.145512 2 5 ping 64 ------- 3 2.0 4.0 -1 94
+ 0.145512 5 4 ping 64 ------- 3 2.0 4.0 -1 94
r 0.145512 3 5 ping 64 ------- 4 3.0 4.0 -1 95
+ 0.145512 5 4 ping 64 ------- 4 3.0 4.0 -1 95
r 0.145576 5 4 ping 64 ------- 3 2.0 4.0 -1 50
+ 0.145576 4 5 ping 64 ------- 5 4.0 3.0 -1 136
- 0.145576 4 5 ping 64 ------- 5 4.0 3.0 -1 136
r 0.145608 5 3 ping 64 ------- 5 4.0 3.0 -1 53
- 0.145816 5 4 ping 64 ------- 4 3.0 4.0 -1 91
r 0.145848 4 5 ping 64 ------- 5 4.0 3.0 -1 96
+ 0.145848 5 3 ping 64 ------- 5 4.0 3.0 -1 96
- 0.145848 5 3 ping 64 ------- 5 4.0 3.0 -1 96
+ 0.146 2 5 ping 64 ------- 3 2.0 4.0 -1 137
- 0.146 2 5 ping 64 ------- 3 2.0 4.0 -1 137
+ 0.146 3 5 ping 64 ------- 4 3.0 4.0 -1 138
- 0.146 3 5 ping 64 ------- 4 3.0 4.0 -1 138
r 0.146088 5 4 ping 64 ------- 4 3.0 4.0 -1 51
+ 0.146088 4 5 ping 64 ------- 5 4.0 3.0 -1 139
- 0.146088 4 5 ping 64 ------- 5 4.0 3.0 -1 139
r 0.14612 5 3 ping 64 ------- 5 4.0 3.0 -1 56
- 0.146328 5 4 ping 64 ------- 3 2.0 4.0 -1 94
r 0.14636 4 5 ping 64 ------- 5 4.0 3.0 -1 97
+ 0.14636 5 3 ping 64 ------- 5 4.0 3.0 -1 97
- 0.14636 5 3 ping 64 ------- 5 4.0 3.0 -1 97
r 0.146512 2 5 ping 64 ------- 3 2.0 4.0 -1 98
+ 0.146512 5 4 ping 64 ------- 3 2.0 4.0 -1 98
r 0.146512 3 5 ping 64 ------- 4 3.0 4.0 -1 99
+ 0.146512 5 4 ping 64 ------- 4 3.0 4.0 -1 99
r 0.1466 5 4 ping 64 ------- 3 2.0 4.0 -1 54
+ 0.1466 4 5 ping 64 ------- 5 4.0 3.0 -1 140
- 0.1466 4 5 ping 64 ------- 5 4.0 3.0 -1 140
r 0.146632 5 3 ping 64 ------- 5 4.0 3.0 -1 57
- 0.14684 5 4 ping 64 ------- 4 3.0 4.0 -1 95
r 0.146872 4 5 ping 64 ------- 5 4.0 3.0 -1 100
+ 0.146872 5 3 ping 64 ------- 5 4.0 3.0 -1 100
- 0.146872 5 3 ping 64 ------- 5 4.0 3.0 -1 100
+ 0.147 2 5 ping 64 ------- 3 2.0 4.0 -1 141
- 0.147 2 5 ping 64 ------- 3 2.0 4.0 -1 141
+ 0.147 3 5 ping 64 ------- 4 3.0 4.0 -1 142
- 0.147 3 5 ping 64 ------- 4 3.0 4.0 -1 142
r 0.147112 5 4 ping 64 ------- 4 3.0 4.0 -1 55
+ 0.147112 4 5 ping 64 ------- 5 4.0 3.0 -1 143
- 0.147112 4 5 ping 64 ------- 5 4.0 3.0 -1 143
r 0.147144 5 3 ping 64 ------- 5 4.0 3.0 -1 60
- 0.147352 5 4 ping 64 ------- 3 2.0 4.0 -1 98
r 0.147384 4 5 ping 64 ------- 5 4.0 3.0 -1 101
+ 0.147384 5 3 ping 64 ------- 5 4.0 3.0 -1 101