+ 0.3 0 2 tcp 40 ------- 1 0.0 4.0 0 0
- 0.3 0 2 tcp 40 ------- 1 0.0 4.0 0 0
r 0.31016 0 2 tcp 40 ------- 1 0.0 4.0 0 0
+ 0.31016 2 3 tcp 40 ------- 1 0.0 4.0 0 0
- 0.31016 2 3 tcp 40 ------- 1 0.0 4.0 0 0
r 0.411227 2 3 tcp 40 ------- 1 0.0 4.0 0 0
h 0.411227 3 6 tcp 40 ------- 1 0.0 4.0 0 0
+ 0.451227 3 6 tcp 40 ------- 1 0.0 4.0 0 0
- 0.451227 3 6 tcp 40 ------- 1 0.0 4.0 0 0
d 0.451231 5 6 tcp 40 ------- 1 0.0 4.0 0 0
r 0.491231 6 4 tcp 40 ------- 1 0.0 4.0 0 0
h 0.491231 4 6 ack 40 ------- 1 4.0 0.0 0 1
+ 0.531231 4 6 ack 40 ------- 1 4.0 0.0 0 1
- 0.531231 4 6 ack 40 ------- 1 4.0 0.0 0 1
d 0.531235 5 6 ack 40 ------- 1 4.0 0.0 0 1
r 0.571235 6 3 ack 40 ------- 1 4.0 0.0 0 1
+ 0.571235 3 2 ack 40 ------- 1 4.0 0.0 0 1
- 0.571235 3 2 ack 40 ------- 1 4.0 0.0 0 1
r 0.672301 3 2 ack 40 ------- 1 4.0 0.0 0 1
+ 0.672301 2 0 ack 40 ------- 1 4.0 0.0 0 1
- 0.672301 2 0 ack 40 ------- 1 4.0 0.0 0 1
r 0.682461 2 0 ack 40 ------- 1 4.0 0.0 0 1
+ 0.682461 0 2 tcp 592 ------- 1 0.0 4.0 1 2
- 0.682461 0 2 tcp 592 ------- 1 0.0 4.0 1 2
+ 0.682461 0 2 tcp 592 ------- 1 0.0 4.0 2 3
- 0.684829 0 2 tcp 592 ------- 1 0.0 4.0 2 3
r 0.694829 0 2 tcp 592 ------- 1 0.0 4.0 1 2
+ 0.694829 2 3 tcp 592 ------- 1 0.0 4.0 1 2
- 0.694829 2 3 tcp 592 ------- 1 0.0 4.0 1 2
r 0.697197 0 2 tcp 592 ------- 1 0.0 4.0 2 3
+ 0.697197 2 3 tcp 592 ------- 1 0.0 4.0 2 3
- 0.710616 2 3 tcp 592 ------- 1 0.0 4.0 2 3
r 0.810616 2 3 tcp 592 ------- 1 0.0 4.0 1 2
h 0.810616 3 6 tcp 592 ------- 1 0.0 4.0 1 2
r 0.826403 2 3 tcp 592 ------- 1 0.0 4.0 2 3
h 0.826403 3 6 tcp 592 ------- 1 0.0 4.0 2 3
+ 0.850616 3 6 tcp 592 ------- 1 0.0 4.0 1 2
- 0.850616 3 6 tcp 592 ------- 1 0.0 4.0 1 2
d 0.85062 5 6 tcp 592 ------- 1 0.0 4.0 1 2
+ 0.866403 3 6 tcp 592 ------- 1 0.0 4.0 2 3
- 0.866403 3 6 tcp 592 ------- 1 0.0 4.0 2 3
d 0.866407 5 6 tcp 592 ------- 1 0.0 4.0 2 3
r 0.89062 6 4 tcp 592 ------- 1 0.0 4.0 1 2
h 0.89062 4 6 ack 40 ------- 1 4.0 0.0 1 4
r 0.906407 6 4 tcp 592 ------- 1 0.0 4.0 2 3
h 0.906407 4 6 ack 40 ------- 1 4.0 0.0 2 5
+ 0.93062 4 6 ack 40 ------- 1 4.0 0.0 1 4
- 0.93062 4 6 ack 40 ------- 1 4.0 0.0 1 4
d 0.930624 5 6 ack 40 ------- 1 4.0 0.0 1 4
+ 0.946407 4 6 ack 40 ------- 1 4.0 0.0 2 5
- 0.946407 4 6 ack 40 ------- 1 4.0 0.0 2 5
d 0.946411 5 6 ack 40 ------- 1 4.0 0.0 2 5
r 0.970624 6 3 ack 40 ------- 1 4.0 0.0 1 4
+ 0.970624 3 2 ack 40 ------- 1 4.0 0.0 1 4
- 0.970624 3 2 ack 40 ------- 1 4.0 0.0 1 4
r 0.986411 6 3 ack 40 ------- 1 4.0 0.0 2 5
+ 0.986411 3 2 ack 40 ------- 1 4.0 0.0 2 5
- 0.986411 3 2 ack 40 ------- 1 4.0 0.0 2 5
r 1.071691 3 2 ack 40 ------- 1 4.0 0.0 1 4
+ 1.071691 2 0 ack 40 ------- 1 4.0 0.0 1 4
- 1.071691 2 0 ack 40 ------- 1 4.0 0.0 1 4
r 1.081851 2 0 ack 40 ------- 1 4.0 0.0 1 4
+ 1.081851 0 2 tcp 592 ------- 1 0.0 4.0 3 6
- 1.081851 0 2 tcp 592 ------- 1 0.0 4.0 3 6
+ 1.081851 0 2 tcp 592 ------- 1 0.0 4.0 4 7
- 1.084219 0 2 tcp 592 ------- 1 0.0 4.0 4 7
r 1.087477 3 2 ack 40 ------- 1 4.0 0.0 2 5
+ 1.087477 2 0 ack 40 ------- 1 4.0 0.0 2 5
- 1.087477 2 0 ack 40 ------- 1 4.0 0.0 2 5
r 1.094219 0 2 tcp 592 ------- 1 0.0 4.0 3 6
+ 1.094219 2 3 tcp 592 ------- 1 0.0 4.0 3 6
- 1.094219 2 3 tcp 592 ------- 1 0.0 4.0 3 6
r 1.096587 0 2 tcp 592 ------- 1 0.0 4.0 4 7
+ 1.096587 2 3 tcp 592 ------- 1 0.0 4.0 4 7
r 1.097637 2 0 ack 40 ------- 1 4.0 0.0 2 5
+ 1.097637 0 2 tcp 592 ------- 1 0.0 4.0 5 8
- 1.097637 0 2 tcp 592 ------- 1 0.0 4.0 5 8
+ 1.097637 0 2 tcp 592 ------- 1 0.0 4.0 6 9
- 1.100005 0 2 tcp 592 ------- 1 0.0 4.0 6 9
- 1.110005 2 3 tcp 592 ------- 1 0.0 4.0 4 7
r 1.110005 0 2 tcp 592 ------- 1 0.0 4.0 5 8
+ 1.110005 2 3 tcp 592 ------- 1 0.0 4.0 5 8
r 1.112373 0 2 tcp 592 ------- 1 0.0 4.0 6 9
+ 1.112373 2 3 tcp 592 ------- 1 0.0 4.0 6 9
- 1.125792 2 3 tcp 592 ------- 1 0.0 4.0 5 8
- 1.141579 2 3 tcp 592 ------- 1 0.0 4.0 6 9
r 1.210005 2 3 tcp 592 ------- 1 0.0 4.0 3 6
h 1.210005 3 6 tcp 592 ------- 1 0.0 4.0 3 6
r 1.225792 2 3 tcp 592 ------- 1 0.0 4.0 4 7
h 1.225792 3 6 tcp 592 ------- 1 0.0 4.0 4 7
r 1.241579 2 3 tcp 592 ------- 1 0.0 4.0 5 8
h 1.241579 3 6 tcp 592 ------- 1 0.0 4.0 5 8
+ 1.250005 3 6 tcp 592 ------- 1 0.0 4.0 3 6
- 1.250005 3 6 tcp 592 ------- 1 0.0 4.0 3 6
d 1.250009 5 6 tcp 592 ------- 1 0.0 4.0 3 6
r 1.257365 2 3 tcp 592 ------- 1 0.0 4.0 6 9
h 1.257365 3 6 tcp 592 ------- 1 0.0 4.0 6 9
+ 1.265792 3 6 tcp 592 ------- 1 0.0 4.0 4 7
- 1.265792 3 6 tcp 592 ------- 1 0.0 4.0 4 7
d 1.265796 5 6 tcp 592 ------- 1 0.0 4.0 4 7
+ 1.281579 3 6 tcp 592 ------- 1 0.0 4.0 5 8
- 1.281579 3 6 tcp 592 ------- 1 0.0 4.0 5 8
d 1.281583 5 6 tcp 592 ------- 1 0.0 4.0 5 8
r 1.290009 6 4 tcp 592 ------- 1 0.0 4.0 3 6
h 1.290009 4 6 ack 40 ------- 1 4.0 0.0 3 10
+ 1.297365 3 6 tcp 592 ------- 1 0.0 4.0 6 9
- 1.297365 3 6 tcp 592 ------- 1 0.0 4.0 6 9
d 1.297369 5 6 tcp 592 ------- 1 0.0 4.0 6 9
r 1.305796 6 4 tcp 592 ------- 1 0.0 4.0 4 7
h 1.305796 4 6 ack 40 ------- 1 4.0 0.0 4 11
+ 1.318317 1 2 tcp 40 ------- 2 1.0 5.0 0 12
- 1.318317 1 2 tcp 40 ------- 2 1.0 5.0 0 12
r 1.321583 6 4 tcp 592 ------- 1 0.0 4.0 5 8
h 1.321583 4 6 ack 40 ------- 1 4.0 0.0 5 13
r 1.328477 1 2 tcp 40 ------- 2 1.0 5.0 0 12
+ 1.328477 2 3 tcp 40 ------- 2 1.0 5.0 0 12
- 1.328477 2 3 tcp 40 ------- 2 1.0 5.0 0 12
+ 1.330009 4 6 ack 40 ------- 1 4.0 0.0 3 10
- 1.330009 4 6 ack 40 ------- 1 4.0 0.0 3 10
d 1.330013 5 6 ack 40 ------- 1 4.0 0.0 3 10
r 1.337369 6 4 tcp 592 ------- 1 0.0 4.0 6 9
h 1.337369 4 6 ack 40 ------- 1 4.0 0.0 6 14
+ 1.345796 4 6 ack 40 ------- 1 4.0 0.0 4 11
- 1.345796 4 6 ack 40 ------- 1 4.0 0.0 4 11
d 1.3458 5 6 ack 40 ------- 1 4.0 0.0 4 11
+ 1.361583 4 6 ack 40 ------- 1 4.0 0.0 5 13
- 1.361583 4 6 ack 40 ------- 1 4.0 0.0 5 13
d 1.361587 5 6 ack 40 ------- 1 4.0 0.0 5 13
r 1.370013 6 3 ack 40 ------- 1 4.0 0.0 3 10
+ 1.370013 3 2 ack 40 ------- 1 4.0 0.0 3 10
- 1.370013 3 2 ack 40 ------- 1 4.0 0.0 3 10
+ 1.377369 4 6 ack 40 ------- 1 4.0 0.0 6 14
- 1.377369 4 6 ack 40 ------- 1 4.0 0.0 6 14
d 1.377373 5 6 ack 40 ------- 1 4.0 0.0 6 14
r 1.3858 6 3 ack 40 ------- 1 4.0 0.0 4 11
+ 1.3858 3 2 ack 40 ------- 1 4.0 0.0 4 11
- 1.3858 3 2 ack 40 ------- 1 4.0 0.0 4 11
r 1.401587 6 3 ack 40 ------- 1 4.0 0.0 5 13
+ 1.401587 3 2 ack 40 ------- 1 4.0 0.0 5 13
- 1.401587 3 2 ack 40 ------- 1 4.0 0.0 5 13
r 1.417373 6 3 ack 40 ------- 1 4.0 0.0 6 14
+ 1.417373 3 2 ack 40 ------- 1 4.0 0.0 6 14
- 1.417373 3 2 ack 40 ------- 1 4.0 0.0 6 14
r 1.429544 2 3 tcp 40 ------- 2 1.0 5.0 0 12
h 1.429544 3 6 tcp 40 ------- 2 1.0 5.0 0 12
+ 1.469544 3 6 tcp 40 ------- 2 1.0 5.0 0 12
- 1.469544 3 6 tcp 40 ------- 2 1.0 5.0 0 12
d 1.469548 4 6 tcp 40 ------- 2 1.0 5.0 0 12
r 1.47108 3 2 ack 40 ------- 1 4.0 0.0 3 10
+ 1.47108 2 0 ack 40 ------- 1 4.0 0.0 3 10
- 1.47108 2 0 ack 40 ------- 1 4.0 0.0 3 10
r 1.48124 2 0 ack 40 ------- 1 4.0 0.0 3 10
+ 1.48124 0 2 tcp 592 ------- 1 0.0 4.0 7 15
- 1.48124 0 2 tcp 592 ------- 1 0.0 4.0 7 15
+ 1.48124 0 2 tcp 592 ------- 1 0.0 4.0 8 16
- 1.483608 0 2 tcp 592 ------- 1 0.0 4.0 8 16
r 1.486867 3 2 ack 40 ------- 1 4.0 0.0 4 11
+ 1.486867 2 0 ack 40 ------- 1 4.0 0.0 4 11
- 1.486867 2 0 ack 40 ------- 1 4.0 0.0 4 11
r 1.493608 0 2 tcp 592 ------- 1 0.0 4.0 7 15
+ 1.493608 2 3 tcp 592 ------- 1 0.0 4.0 7 15
- 1.493608 2 3 tcp 592 ------- 1 0.0 4.0 7 15
r 1.495976 0 2 tcp 592 ------- 1 0.0 4.0 8 16
+ 1.495976 2 3 tcp 592 ------- 1 0.0 4.0 8 16
r 1.497027 2 0 ack 40 ------- 1 4.0 0.0 4 11
+ 1.497027 0 2 tcp 592 ------- 1 0.0 4.0 9 17
- 1.497027 0 2 tcp 592 ------- 1 0.0 4.0 9 17
+ 1.497027 0 2 tcp 592 ------- 1 0.0 4.0 10 18
- 1.499395 0 2 tcp 592 ------- 1 0.0 4.0 10 18
r 1.502653 3 2 ack 40 ------- 1 4.0 0.0 5 13
+ 1.502653 2 0 ack 40 ------- 1 4.0 0.0 5 13
- 1.502653 2 0 ack 40 ------- 1 4.0 0.0 5 13
- 1.509395 2 3 tcp 592 ------- 1 0.0 4.0 8 16
r 1.509395 0 2 tcp 592 ------- 1 0.0 4.0 9 17
+ 1.509395 2 3 tcp 592 ------- 1 0.0 4.0 9 17
r 1.509548 6 5 tcp 40 ------- 2 1.0 5.0 0 12
h 1.509548 5 6 ack 40 ------- 2 5.0 1.0 0 19
r 1.511763 0 2 tcp 592 ------- 1 0.0 4.0 10 18
+ 1.511763 2 3 tcp 592 ------- 1 0.0 4.0 10 18
r 1.512813 2 0 ack 40 ------- 1 4.0 0.0 5 13
+ 1.512813 0 2 tcp 592 ------- 1 0.0 4.0 11 20
- 1.512813 0 2 tcp 592 ------- 1 0.0 4.0 11 20
+ 1.512813 0 2 tcp 592 ------- 1 0.0 4.0 12 21
- 1.515181 0 2 tcp 592 ------- 1 0.0 4.0 12 21
r 1.51844 3 2 ack 40 ------- 1 4.0 0.0 6 14
+ 1.51844 2 0 ack 40 ------- 1 4.0 0.0 6 14
- 1.51844 2 0 ack 40 ------- 1 4.0 0.0 6 14
- 1.525181 2 3 tcp 592 ------- 1 0.0 4.0 9 17
r 1.525181 0 2 tcp 592 ------- 1 0.0 4.0 11 20
+ 1.525181 2 3 tcp 592 ------- 1 0.0 4.0 11 20
r 1.527549 0 2 tcp 592 ------- 1 0.0 4.0 12 21
+ 1.527549 2 3 tcp 592 ------- 1 0.0 4.0 12 21
r 1.5286 2 0 ack 40 ------- 1 4.0 0.0 6 14
+ 1.5286 0 2 tcp 592 ------- 1 0.0 4.0 13 22
- 1.5286 0 2 tcp 592 ------- 1 0.0 4.0 13 22
+ 1.5286 0 2 tcp 592 ------- 1 0.0 4.0 14 23
- 1.530968 0 2 tcp 592 ------- 1 0.0 4.0 14 23
- 1.540968 2 3 tcp 592 ------- 1 0.0 4.0 10 18
r 1.540968 0 2 tcp 592 ------- 1 0.0 4.0 13 22
+ 1.540968 2 3 tcp 592 ------- 1 0.0 4.0 13 22
r 1.543336 0 2 tcp 592 ------- 1 0.0 4.0 14 23
+ 1.543336 2 3 tcp 592 ------- 1 0.0 4.0 14 23
+ 1.549548 5 6 ack 40 ------- 2 5.0 1.0 0 19
- 1.549548 5 6 ack 40 ------- 2 5.0 1.0 0 19
d 1.549552 4 6 ack 40 ------- 2 5.0 1.0 0 19
- 1.556755 2 3 tcp 592 ------- 1 0.0 4.0 11 20
- 1.572541 2 3 tcp 592 ------- 1 0.0 4.0 12 21
- 1.588328 2 3 tcp 592 ------- 1 0.0 4.0 13 22
r 1.589552 6 3 ack 40 ------- 2 5.0 1.0 0 19
+ 1.589552 3 2 ack 40 ------- 2 5.0 1.0 0 19
- 1.589552 3 2 ack 40 ------- 2 5.0 1.0 0 19
- 1.604115 2 3 tcp 592 ------- 1 0.0 4.0 14 23
r 1.609395 2 3 tcp 592 ------- 1 0.0 4.0 7 15
h 1.609395 3 6 tcp 592 ------- 1 0.0 4.0 7 15
r 1.625181 2 3 tcp 592 ------- 1 0.0 4.0 8 16
h 1.625181 3 6 tcp 592 ------- 1 0.0 4.0 8 16
r 1.640968 2 3 tcp 592 ------- 1 0.0 4.0 9 17
h 1.640968 3 6 tcp 592 ------- 1 0.0 4.0 9 17
+ 1.649395 3 6 tcp 592 ------- 1 0.0 4.0 7 15
- 1.649395 3 6 tcp 592 ------- 1 0.0 4.0 7 15
d 1.649399 5 6 tcp 592 ------- 1 0.0 4.0 7 15
r 1.656755 2 3 tcp 592 ------- 1 0.0 4.0 10 18
h 1.656755 3 6 tcp 592 ------- 1 0.0 4.0 10 18
+ 1.665181 3 6 tcp 592 ------- 1 0.0 4.0 8 16
- 1.665181 3 6 tcp 592 ------- 1 0.0 4.0 8 16
d 1.665185 5 6 tcp 592 ------- 1 0.0 4.0 8 16
r 1.672541 2 3 tcp 592 ------- 1 0.0 4.0 11 20
h 1.672541 3 6 tcp 592 ------- 1 0.0 4.0 11 20
+ 1.680968 3 6 tcp 592 ------- 1 0.0 4.0 9 17
- 1.680968 3 6 tcp 592 ------- 1 0.0 4.0 9 17
d 1.680972 5 6 tcp 592 ------- 1 0.0 4.0 9 17
r 1.688328 2 3 tcp 592 ------- 1 0.0 4.0 12 21
h 1.688328 3 6 tcp 592 ------- 1 0.0 4.0 12 21
r 1.689399 6 4 tcp 592 ------- 1 0.0 4.0 7 15
h 1.689399 4 6 ack 40 ------- 1 4.0 0.0 7 24
r 1.690619 3 2 ack 40 ------- 2 5.0 1.0 0 19
+ 1.690619 2 1 ack 40 ------- 2 5.0 1.0 0 19
- 1.690619 2 1 ack 40 ------- 2 5.0 1.0 0 19
+ 1.696755 3 6 tcp 592 ------- 1 0.0 4.0 10 18
- 1.696755 3 6 tcp 592 ------- 1 0.0 4.0 10 18
d 1.696759 5 6 tcp 592 ------- 1 0.0 4.0 10 18
r 1.700779 2 1 ack 40 ------- 2 5.0 1.0 0 19
+ 1.700779 1 2 tcp 592 ------- 2 1.0 5.0 1 25
- 1.700779 1 2 tcp 592 ------- 2 1.0 5.0 1 25
+ 1.700779 1 2 tcp 592 ------- 2 1.0 5.0 2 26
- 1.703147 1 2 tcp 592 ------- 2 1.0 5.0 2 26
r 1.704115 2 3 tcp 592 ------- 1 0.0 4.0 13 22
h 1.704115 3 6 tcp 592 ------- 1 0.0 4.0 13 22
r 1.705185 6 4 tcp 592 ------- 1 0.0 4.0 8 16
h 1.705185 4 6 ack 40 ------- 1 4.0 0.0 8 27
+ 1.712541 3 6 tcp 592 ------- 1 0.0 4.0 11 20
- 1.712541 3 6 tcp 592 ------- 1 0.0 4.0 11 20
d 1.712545 5 6 tcp 592 ------- 1 0.0 4.0 11 20
r 1.713147 1 2 tcp 592 ------- 2 1.0 5.0 1 25
+ 1.713147 2 3 tcp 592 ------- 2 1.0 5.0 1 25
- 1.713147 2 3 tcp 592 ------- 2 1.0 5.0 1 25
r 1.715515 1 2 tcp 592 ------- 2 1.0 5.0 2 26
+ 1.715515 2 3 tcp 592 ------- 2 1.0 5.0 2 26
r 1.719901 2 3 tcp 592 ------- 1 0.0 4.0 14 23
h 1.719901 3 6 tcp 592 ------- 1 0.0 4.0 14 23
r 1.720972 6 4 tcp 592 ------- 1 0.0 4.0 9 17
h 1.720972 4 6 ack 40 ------- 1 4.0 0.0 9 28
+ 1.728328 3 6 tcp 592 ------- 1 0.0 4.0 12 21
- 1.728328 3 6 tcp 592 ------- 1 0.0 4.0 12 21
d 1.728332 5 6 tcp 592 ------- 1 0.0 4.0 12 21
- 1.728933 2 3 tcp 592 ------- 2 1.0 5.0 2 26
+ 1.729399 4 6 ack 40 ------- 1 4.0 0.0 7 24
- 1.729399 4 6 ack 40 ------- 1 4.0 0.0 7 24
d 1.729403 5 6 ack 40 ------- 1 4.0 0.0 7 24
r 1.736759 6 4 tcp 592 ------- 1 0.0 4.0 10 18
h 1.736759 4 6 ack 40 ------- 1 4.0 0.0 10 29
+ 1.744115 3 6 tcp 592 ------- 1 0.0 4.0 13 22
- 1.744115 3 6 tcp 592 ------- 1 0.0 4.0 13 22
d 1.744119 5 6 tcp 592 ------- 1 0.0 4.0 13 22
+ 1.745185 4 6 ack 40 ------- 1 4.0 0.0 8 27
- 1.745185 4 6 ack 40 ------- 1 4.0 0.0 8 27
d 1.745189 5 6 ack 40 ------- 1 4.0 0.0 8 27
r 1.752545 6 4 tcp 592 ------- 1 0.0 4.0 11 20
h 1.752545 4 6 ack 40 ------- 1 4.0 0.0 11 30
+ 1.759901 3 6 tcp 592 ------- 1 0.0 4.0 14 23
- 1.759901 3 6 tcp 592 ------- 1 0.0 4.0 14 23
d 1.759905 5 6 tcp 592 ------- 1 0.0 4.0 14 23
+ 1.760972 4 6 ack 40 ------- 1 4.0 0.0 9 28
- 1.760972 4 6 ack 40 ------- 1 4.0 0.0 9 28
d 1.760976 5 6 ack 40 ------- 1 4.0 0.0 9 28
r 1.768332 6 4 tcp 592 ------- 1 0.0 4.0 12 21
h 1.768332 4 6 ack 40 ------- 1 4.0 0.0 12 31
r 1.769403 6 3 ack 40 ------- 1 4.0 0.0 7 24
+ 1.769403 3 2 ack 40 ------- 1 4.0 0.0 7 24
- 1.769403 3 2 ack 40 ------- 1 4.0 0.0 7 24
+ 1.776759 4 6 ack 40 ------- 1 4.0 0.0 10 29
- 1.776759 4 6 ack 40 ------- 1 4.0 0.0 10 29
d 1.776763 5 6 ack 40 ------- 1 4.0 0.0 10 29
r 1.784119 6 4 tcp 592 ------- 1 0.0 4.0 13 22
h 1.784119 4 6 ack 40 ------- 1 4.0 0.0 13 32
r 1.785189 6 3 ack 40 ------- 1 4.0 0.0 8 27
+ 1.785189 3 2 ack 40 ------- 1 4.0 0.0 8 27
- 1.785189 3 2 ack 40 ------- 1 4.0 0.0 8 27
+ 1.792545 4 6 ack 40 ------- 1 4.0 0.0 11 30
- 1.792545 4 6 ack 40 ------- 1 4.0 0.0 11 30
d 1.792549 5 6 ack 40 ------- 1 4.0 0.0 11 30
r 1.799905 6 4 tcp 592 ------- 1 0.0 4.0 14 23
h 1.799905 4 6 ack 40 ------- 1 4.0 0.0 14 33
r 1.800976 6 3 ack 40 ------- 1 4.0 0.0 9 28
+ 1.800976 3 2 ack 40 ------- 1 4.0 0.0 9 28
- 1.800976 3 2 ack 40 ------- 1 4.0 0.0 9 28
+ 1.808332 4 6 ack 40 ------- 1 4.0 0.0 12 31
- 1.808332 4 6 ack 40 ------- 1 4.0 0.0 12 31
d 1.808336 5 6 ack 40 ------- 1 4.0 0.0 12 31
r 1.816763 6 3 ack 40 ------- 1 4.0 0.0 10 29
+ 1.816763 3 2 ack 40 ------- 1 4.0 0.0 10 29
- 1.816763 3 2 ack 40 ------- 1 4.0 0.0 10 29
+ 1.824119 4 6 ack 40 ------- 1 4.0 0.0 13 32
- 1.824119 4 6 ack 40 ------- 1 4.0 0.0 13 32
d 1.824123 5 6 ack 40 ------- 1 4.0 0.0 13 32
r 1.828933 2 3 tcp 592 ------- 2 1.0 5.0 1 25
h 1.828933 3 6 tcp 592 ------- 2 1.0 5.0 1 25
r 1.832549 6 3 ack 40 ------- 1 4.0 0.0 11 30
+ 1.832549 3 2 ack 40 ------- 1 4.0 0.0 11 30
- 1.832549 3 2 ack 40 ------- 1 4.0 0.0 11 30
+ 1.839905 4 6 ack 40 ------- 1 4.0 0.0 14 33
- 1.839905 4 6 ack 40 ------- 1 4.0 0.0 14 33
d 1.839909 5 6 ack 40 ------- 1 4.0 0.0 14 33
r 1.84472 2 3 tcp 592 ------- 2 1.0 5.0 2 26
h 1.84472 3 6 tcp 592 ------- 2 1.0 5.0 2 26
r 1.848336 6 3 ack 40 ------- 1 4.0 0.0 12 31
+ 1.848336 3 2 ack 40 ------- 1 4.0 0.0 12 31
- 1.848336 3 2 ack 40 ------- 1 4.0 0.0 12 31
r 1.864123 6 3 ack 40 ------- 1 4.0 0.0 13 32
+ 1.864123 3 2 ack 40 ------- 1 4.0 0.0 13 32
- 1.864123 3 2 ack 40 ------- 1 4.0 0.0 13 32
+ 1.868933 3 6 tcp 592 ------- 2 1.0 5.0 1 25
- 1.868933 3 6 tcp 592 ------- 2 1.0 5.0 1 25
d 1.868937 4 6 tcp 592 ------- 2 1.0 5.0 1 25
r 1.870469 3 2 ack 40 ------- 1 4.0 0.0 7 24
+ 1.870469 2 0 ack 40 ------- 1 4.0 0.0 7 24
- 1.870469 2 0 ack 40 ------- 1 4.0 0.0 7 24
r 1.879909 6 3 ack 40 ------- 1 4.0 0.0 14 33
+ 1.879909 3 2 ack 40 ------- 1 4.0 0.0 14 33
- 1.879909 3 2 ack 40 ------- 1 4.0 0.0 14 33
r 1.880629 2 0 ack 40 ------- 1 4.0 0.0 7 24
+ 1.880629 0 2 tcp 592 ------- 1 0.0 4.0 15 34
- 1.880629 0 2 tcp 592 ------- 1 0.0 4.0 15 34
+ 1.880629 0 2 tcp 592 ------- 1 0.0 4.0 16 35
- 1.882997 0 2 tcp 592 ------- 1 0.0 4.0 16 35
+ 1.88472 3 6 tcp 592 ------- 2 1.0 5.0 2 26
- 1.88472 3 6 tcp 592 ------- 2 1.0 5.0 2 26
d 1.884724 4 6 tcp 592 ------- 2 1.0 5.0 2 26
r 1.886256 3 2 ack 40 ------- 1 4.0 0.0 8 27
+ 1.886256 2 0 ack 40 ------- 1 4.0 0.0 8 27
- 1.886256 2 0 ack 40 ------- 1 4.0 0.0 8 27
r 1.892997 0 2 tcp 592 ------- 1 0.0 4.0 15 34
+ 1.892997 2 3 tcp 592 ------- 1 0.0 4.0 15 34
- 1.892997 2 3 tcp 592 ------- 1 0.0 4.0 15 34
r 1.895365 0 2 tcp 592 ------- 1 0.0 4.0 16 35
+ 1.895365 2 3 tcp 592 ------- 1 0.0 4.0 16 35
r 1.896416 2 0 ack 40 ------- 1 4.0 0.0 8 27
+ 1.896416 0 2 tcp 592 ------- 1 0.0 4.0 17 36
- 1.896416 0 2 tcp 592 ------- 1 0.0 4.0 17 36
+ 1.896416 0 2 tcp 592 ------- 1 0.0 4.0 18 37
- 1.898784 0 2 tcp 592 ------- 1 0.0 4.0 18 37
r 1.902043 3 2 ack 40 ------- 1 4.0 0.0 9 28
+ 1.902043 2 0 ack 40 ------- 1 4.0 0.0 9 28
- 1.902043 2 0 ack 40 ------- 1 4.0 0.0 9 28
- 1.908784 2 3 tcp 592 ------- 1 0.0 4.0 16 35
r 1.908784 0 2 tcp 592 ------- 1 0.0 4.0 17 36
+ 1.908784 2 3 tcp 592 ------- 1 0.0 4.0 17 36
r 1.908937 6 5 tcp 592 ------- 2 1.0 5.0 1 25
h 1.908937 5 6 ack 40 ------- 2 5.0 1.0 1 38
r 1.911152 0 2 tcp 592 ------- 1 0.0 4.0 18 37
+ 1.911152 2 3 tcp 592 ------- 1 0.0 4.0 18 37
r 1.912203 2 0 ack 40 ------- 1 4.0 0.0 9 28
+ 1.912203 0 2 tcp 592 ------- 1 0.0 4.0 19 39
- 1.912203 0 2 tcp 592 ------- 1 0.0 4.0 19 39
+ 1.912203 0 2 tcp 592 ------- 1 0.0 4.0 20 40
- 1.914571 0 2 tcp 592 ------- 1 0.0 4.0 20 40
r 1.917829 3 2 ack 40 ------- 1 4.0 0.0 10 29
+ 1.917829 2 0 ack 40 ------- 1 4.0 0.0 10 29
- 1.917829 2 0 ack 40 ------- 1 4.0 0.0 10 29
- 1.924571 2 3 tcp 592 ------- 1 0.0 4.0 17 36
r 1.924571 0 2 tcp 592 ------- 1 0.0 4.0 19 39
+ 1.924571 2 3 tcp 592 ------- 1 0.0 4.0 19 39
r 1.924724 6 5 tcp 592 ------- 2 1.0 5.0 2 26
h 1.924724 5 6 ack 40 ------- 2 5.0 1.0 2 41
r 1.926939 0 2 tcp 592 ------- 1 0.0 4.0 20 40
+ 1.926939 2 3 tcp 592 ------- 1 0.0 4.0 20 40
r 1.927989 2 0 ack 40 ------- 1 4.0 0.0 10 29
+ 1.927989 0 2 tcp 592 ------- 1 0.0 4.0 21 42
- 1.927989 0 2 tcp 592 ------- 1 0.0 4.0 21 42
+ 1.927989 0 2 tcp 592 ------- 1 0.0 4.0 22 43
- 1.930357 0 2 tcp 592 ------- 1 0.0 4.0 22 43
r 1.933616 3 2 ack 40 ------- 1 4.0 0.0 11 30
+ 1.933616 2 0 ack 40 ------- 1 4.0 0.0 11 30
- 1.933616 2 0 ack 40 ------- 1 4.0 0.0 11 30
- 1.940357 2 3 tcp 592 ------- 1 0.0 4.0 18 37
r 1.940357 0 2 tcp 592 ------- 1 0.0 4.0 21 42
+ 1.940357 2 3 tcp 592 ------- 1 0.0 4.0 21 42
r 1.942725 0 2 tcp 592 ------- 1 0.0 4.0 22 43
+ 1.942725 2 3 tcp 592 ------- 1 0.0 4.0 22 43
r 1.943776 2 0 ack 40 ------- 1 4.0 0.0 11 30
+ 1.943776 0 2 tcp 592 ------- 1 0.0 4.0 23 44
- 1.943776 0 2 tcp 592 ------- 1 0.0 4.0 23 44
+ 1.943776 0 2 tcp 592 ------- 1 0.0 4.0 24 45
- 1.946144 0 2 tcp 592 ------- 1 0.0 4.0 24 45
+ 1.948937 5 6 ack 40 ------- 2 5.0 1.0 1 38
- 1.948937 5 6 ack 40 ------- 2 5.0 1.0 1 38
d 1.948941 4 6 ack 40 ------- 2 5.0 1.0 1 38
r 1.949403 3 2 ack 40 ------- 1 4.0 0.0 12 31
+ 1.949403 2 0 ack 40 ------- 1 4.0 0.0 12 31
- 1.949403 2 0 ack 40 ------- 1 4.0 0.0 12 31
- 1.956144 2 3 tcp 592 ------- 1 0.0 4.0 19 39
r 1.956144 0 2 tcp 592 ------- 1 0.0 4.0 23 44
+ 1.956144 2 3 tcp 592 ------- 1 0.0 4.0 23 44
r 1.958512 0 2 tcp 592 ------- 1 0.0 4.0 24 45
+ 1.958512 2 3 tcp 592 ------- 1 0.0 4.0 24 45
r 1.959563 2 0 ack 40 ------- 1 4.0 0.0 12 31
+ 1.959563 0 2 tcp 592 ------- 1 0.0 4.0 25 46
- 1.959563 0 2 tcp 592 ------- 1 0.0 4.0 25 46
+ 1.959563 0 2 tcp 592 ------- 1 0.0 4.0 26 47
- 1.961931 0 2 tcp 592 ------- 1 0.0 4.0 26 47
+ 1.964724 5 6 ack 40 ------- 2 5.0 1.0 2 41
- 1.964724 5 6 ack 40 ------- 2 5.0 1.0 2 41
d 1.964728 4 6 ack 40 ------- 2 5.0 1.0 2 41
r 1.965189 3 2 ack 40 ------- 1 4.0 0.0 13 32
+ 1.965189 2 0 ack 40 ------- 1 4.0 0.0 13 32
- 1.965189 2 0 ack 40 ------- 1 4.0 0.0 13 32
- 1.971931 2 3 tcp 592 ------- 1 0.0 4.0 20 40
r 1.971931 0 2 tcp 592 ------- 1 0.0 4.0 25 46
+ 1.971931 2 3 tcp 592 ------- 1 0.0 4.0 25 46
r 1.974299 0 2 tcp 592 ------- 1 0.0 4.0 26 47
+ 1.974299 2 3 tcp 592 ------- 1 0.0 4.0 26 47
r 1.975349 2 0 ack 40 ------- 1 4.0 0.0 13 32
+ 1.975349 0 2 tcp 592 ------- 1 0.0 4.0 27 48
- 1.975349 0 2 tcp 592 ------- 1 0.0 4.0 27 48
+ 1.975349 0 2 tcp 592 ------- 1 0.0 4.0 28 49
- 1.977717 0 2 tcp 592 ------- 1 0.0 4.0 28 49
r 1.980976 3 2 ack 40 ------- 1 4.0 0.0 14 33
+ 1.980976 2 0 ack 40 ------- 1 4.0 0.0 14 33
- 1.980976 2 0 ack 40 ------- 1 4.0 0.0 14 33
- 1.987717 2 3 tcp 592 ------- 1 0.0 4.0 21 42
r 1.987717 0 2 tcp 592 ------- 1 0.0 4.0 27 48
+ 1.987717 2 3 tcp 592 ------- 1 0.0 4.0 27 48
r 1.988941 6 3 ack 40 ------- 2 5.0 1.0 1 38
+ 1.988941 3 2 ack 40 ------- 2 5.0 1.0 1 38
- 1.988941 3 2 ack 40 ------- 2 5.0 1.0 1 38
r 1.990085 0 2 tcp 592 ------- 1 0.0 4.0 28 49
+ 1.990085 2 3 tcp 592 ------- 1 0.0 4.0 28 49
r 1.991136 2 0 ack 40 ------- 1 4.0 0.0 14 33
+ 1.991136 0 2 tcp 592 ------- 1 0.0 4.0 29 50
- 1.991136 0 2 tcp 592 ------- 1 0.0 4.0 29 50
+ 1.991136 0 2 tcp 592 ------- 1 0.0 4.0 30 51
- 1.993504 0 2 tcp 592 ------- 1 0.0 4.0 30 51
- 2.003504 2 3 tcp 592 ------- 1 0.0 4.0 22 43
r 2.003504 0 2 tcp 592 ------- 1 0.0 4.0 29 50
+ 2.003504 2 3 tcp 592 ------- 1 0.0 4.0 29 50
r 2.004728 6 3 ack 40 ------- 2 5.0 1.0 2 41
+ 2.004728 3 2 ack 40 ------- 2 5.0 1.0 2 41
- 2.004728 3 2 ack 40 ------- 2 5.0 1.0 2 41
r 2.005872 0 2 tcp 592 ------- 1 0.0 4.0 30 51
+ 2.005872 2 3 tcp 592 ------- 1 0.0 4.0 30 51
r 2.008784 2 3 tcp 592 ------- 1 0.0 4.0 15 34
h 2.008784 3 6 tcp 592 ------- 1 0.0 4.0 15 34
- 2.019291 2 3 tcp 592 ------- 1 0.0 4.0 23 44
r 2.024571 2 3 tcp 592 ------- 1 0.0 4.0 16 35
h 2.024571 3 6 tcp 592 ------- 1 0.0 4.0 16 35
- 2.035077 2 3 tcp 592 ------- 1 0.0 4.0 24 45
r 2.040357 2 3 tcp 592 ------- 1 0.0 4.0 17 36
h 2.040357 3 6 tcp 592 ------- 1 0.0 4.0 17 36
+ 2.048784 3 6 tcp 592 ------- 1 0.0 4.0 15 34
- 2.048784 3 6 tcp 592 ------- 1 0.0 4.0 15 34
d 2.048788 5 6 tcp 592 ------- 1 0.0 4.0 15 34
- 2.050864 2 3 tcp 592 ------- 1 0.0 4.0 25 46
r 2.056144 2 3 tcp 592 ------- 1 0.0 4.0 18 37
h 2.056144 3 6 tcp 592 ------- 1 0.0 4.0 18 37
+ 2.064571 3 6 tcp 592 ------- 1 0.0 4.0 16 35
- 2.064571 3 6 tcp 592 ------- 1 0.0 4.0 16 35
d 2.064575 5 6 tcp 592 ------- 1 0.0 4.0 16 35
- 2.066651 2 3 tcp 592 ------- 1 0.0 4.0 26 47
r 2.071931 2 3 tcp 592 ------- 1 0.0 4.0 19 39
h 2.071931 3 6 tcp 592 ------- 1 0.0 4.0 19 39
+ 2.080357 3 6 tcp 592 ------- 1 0.0 4.0 17 36
- 2.080357 3 6 tcp 592 ------- 1 0.0 4.0 17 36
d 2.080361 5 6 tcp 592 ------- 1 0.0 4.0 17 36
- 2.082437 2 3 tcp 592 ------- 1 0.0 4.0 27 48
r 2.087717 2 3 tcp 592 ------- 1 0.0 4.0 20 40
h 2.087717 3 6 tcp 592 ------- 1 0.0 4.0 20 40
r 2.088788 6 4 tcp 592 ------- 1 0.0 4.0 15 34
h 2.088788 4 6 ack 40 ------- 1 4.0 0.0 15 52
r 2.090008 3 2 ack 40 ------- 2 5.0 1.0 1 38
+ 2.090008 2 1 ack 40 ------- 2 5.0 1.0 1 38
- 2.090008 2 1 ack 40 ------- 2 5.0 1.0 1 38
+ 2.096144 3 6 tcp 592 ------- 1 0.0 4.0 18 37
- 2.096144 3 6 tcp 592 ------- 1 0.0 4.0 18 37
d 2.096148 5 6 tcp 592 ------- 1 0.0 4.0 18 37
- 2.098224 2 3 tcp 592 ------- 1 0.0 4.0 28 49
r 2.100168 2 1 ack 40 ------- 2 5.0 1.0 1 38
r 2.103504 2 3 tcp 592 ------- 1 0.0 4.0 21 42
h 2.103504 3 6 tcp 592 ------- 1 0.0 4.0 21 42
r 2.104575 6 4 tcp 592 ------- 1 0.0 4.0 16 35
h 2.104575 4 6 ack 40 ------- 1 4.0 0.0 16 53
r 2.105795 3 2 ack 40 ------- 2 5.0 1.0 2 41
+ 2.105795 2 1 ack 40 ------- 2 5.0 1.0 2 41
- 2.105795 2 1 ack 40 ------- 2 5.0 1.0 2 41
+ 2.111931 3 6 tcp 592 ------- 1 0.0 4.0 19 39
- 2.111931 3 6 tcp 592 ------- 1 0.0 4.0 19 39
d 2.111935 5 6 tcp 592 ------- 1 0.0 4.0 19 39
- 2.114011 2 3 tcp 592 ------- 1 0.0 4.0 29 50
r 2.115955 2 1 ack 40 ------- 2 5.0 1.0 2 41
r 2.119291 2 3 tcp 592 ------- 1 0.0 4.0 22 43
h 2.119291 3 6 tcp 592 ------- 1 0.0 4.0 22 43
r 2.120361 6 4 tcp 592 ------- 1 0.0 4.0 17 36
h 2.120361 4 6 ack 40 ------- 1 4.0 0.0 17 54
+ 2.127717 3 6 tcp 592 ------- 1 0.0 4.0 20 40
- 2.127717 3 6 tcp 592 ------- 1 0.0 4.0 20 40
d 2.127721 5 6 tcp 592 ------- 1 0.0 4.0 20 40
+ 2.128788 4 6 ack 40 ------- 1 4.0 0.0 15 52
- 2.128788 4 6 ack 40 ------- 1 4.0 0.0 15 52
d 2.128792 5 6 ack 40 ------- 1 4.0 0.0 15 52
- 2.129797 2 3 tcp 592 ------- 1 0.0 4.0 30 51
r 2.135077 2 3 tcp 592 ------- 1 0.0 4.0 23 44
h 2.135077 3 6 tcp 592 ------- 1 0.0 4.0 23 44
r 2.136148 6 4 tcp 592 ------- 1 0.0 4.0 18 37
h 2.136148 4 6 ack 40 ------- 1 4.0 0.0 18 55
+ 2.143504 3 6 tcp 592 ------- 1 0.0 4.0 21 42
- 2.143504 3 6 tcp 592 ------- 1 0.0 4.0 21 42
d 2.143508 5 6 tcp 592 ------- 1 0.0 4.0 21 42
+ 2.144575 4 6 ack 40 ------- 1 4.0 0.0 16 53
- 2.144575 4 6 ack 40 ------- 1 4.0 0.0 16 53
d 2.144579 5 6 ack 40 ------- 1 4.0 0.0 16 53
r 2.150864 2 3 tcp 592 ------- 1 0.0 4.0 24 45
h 2.150864 3 6 tcp 592 ------- 1 0.0 4.0 24 45
r 2.151935 6 4 tcp 592 ------- 1 0.0 4.0 19 39
h 2.151935 4 6 ack 40 ------- 1 4.0 0.0 19 56
+ 2.159291 3 6 tcp 592 ------- 1 0.0 4.0 22 43
- 2.159291 3 6 tcp 592 ------- 1 0.0 4.0 22 43
d 2.159295 5 6 tcp 592 ------- 1 0.0 4.0 22 43
+ 2.160361 4 6 ack 40 ------- 1 4.0 0.0 17 54
- 2.160361 4 6 ack 40 ------- 1 4.0 0.0 17 54
d 2.160365 5 6 ack 40 ------- 1 4.0 0.0 17 54
r 2.166651 2 3 tcp 592 ------- 1 0.0 4.0 25 46
h 2.166651 3 6 tcp 592 ------- 1 0.0 4.0 25 46
r 2.167721 6 4 tcp 592 ------- 1 0.0 4.0 20 40
h 2.167721 4 6 ack 40 ------- 1 4.0 0.0 20 57
r 2.168792 6 3 ack 40 ------- 1 4.0 0.0 15 52
+ 2.168792 3 2 ack 40 ------- 1 4.0 0.0 15 52
- 2.168792 3 2 ack 40 ------- 1 4.0 0.0 15 52
+ 2.175077 3 6 tcp 592 ------- 1 0.0 4.0 23 44
- 2.175077 3 6 tcp 592 ------- 1 0.0 4.0 23 44
d 2.175081 5 6 tcp 592 ------- 1 0.0 4.0 23 44
+ 2.176148 4 6 ack 40 ------- 1 4.0 0.0 18 55
- 2.176148 4 6 ack 40 ------- 1 4.0 0.0 18 55
d 2.176152 5 6 ack 40 ------- 1 4.0 0.0 18 55
r 2.182437 2 3 tcp 592 ------- 1 0.0 4.0 26 47
h 2.182437 3 6 tcp 592 ------- 1 0.0 4.0 26 47
r 2.183508 6 4 tcp 592 ------- 1 0.0 4.0 21 42
h 2.183508 4 6 ack 40 ------- 1 4.0 0.0 21 58
r 2.184579 6 3 ack 40 ------- 1 4.0 0.0 16 53
+ 2.184579 3 2 ack 40 ------- 1 4.0 0.0 16 53
- 2.184579 3 2 ack 40 ------- 1 4.0 0.0 16 53
+ 2.190864 3 6 tcp 592 ------- 1 0.0 4.0 24 45
- 2.190864 3 6 tcp 592 ------- 1 0.0 4.0 24 45
d 2.190868 5 6 tcp 592 ------- 1 0.0 4.0 24 45
+ 2.191935 4 6 ack 40 ------- 1 4.0 0.0 19 56
- 2.191935 4 6 ack 40 ------- 1 4.0 0.0 19 56
d 2.191939 5 6 ack 40 ------- 1 4.0 0.0 19 56
r 2.198224 2 3 tcp 592 ------- 1 0.0 4.0 27 48
h 2.198224 3 6 tcp 592 ------- 1 0.0 4.0 27 48
r 2.199295 6 4 tcp 592 ------- 1 0.0 4.0 22 43
h 2.199295 4 6 ack 40 ------- 1 4.0 0.0 22 59
r 2.200365 6 3 ack 40 ------- 1 4.0 0.0 17 54
+ 2.200365 3 2 ack 40 ------- 1 4.0 0.0 17 54
- 2.200365 3 2 ack 40 ------- 1 4.0 0.0 17 54
+ 2.206651 3 6 tcp 592 ------- 1 0.0 4.0 25 46
- 2.206651 3 6 tcp 592 ------- 1 0.0 4.0 25 46
d 2.206655 5 6 tcp 592 ------- 1 0.0 4.0 25 46
+ 2.207721 4 6 ack 40 ------- 1 4.0 0.0 20 57
- 2.207721 4 6 ack 40 ------- 1 4.0 0.0 20 57
d 2.207725 5 6 ack 40 ------- 1 4.0 0.0 20 57
r 2.214011 2 3 tcp 592 ------- 1 0.0 4.0 28 49
h 2.214011 3 6 tcp 592 ------- 1 0.0 4.0 28 49
r 2.215081 6 4 tcp 592 ------- 1 0.0 4.0 23 44
h 2.215081 4 6 ack 40 ------- 1 4.0 0.0 23 60
r 2.216152 6 3 ack 40 ------- 1 4.0 0.0 18 55
+ 2.216152 3 2 ack 40 ------- 1 4.0 0.0 18 55
- 2.216152 3 2 ack 40 ------- 1 4.0 0.0 18 55
+ 2.222437 3 6 tcp 592 ------- 1 0.0 4.0 26 47
- 2.222437 3 6 tcp 592 ------- 1 0.0 4.0 26 47
d 2.222441 5 6 tcp 592 ------- 1 0.0 4.0 26 47
+ 2.223508 4 6 ack 40 ------- 1 4.0 0.0 21 58
- 2.223508 4 6 ack 40 ------- 1 4.0 0.0 21 58
d 2.223512 5 6 ack 40 ------- 1 4.0 0.0 21 58
r 2.229797 2 3 tcp 592 ------- 1 0.0 4.0 29 50
h 2.229797 3 6 tcp 592 ------- 1 0.0 4.0 29 50
r 2.230868 6 4 tcp 592 ------- 1 0.0 4.0 24 45
h 2.230868 4 6 ack 40 ------- 1 4.0 0.0 24 61
r 2.231939 6 3 ack 40 ------- 1 4.0 0.0 19 56
+ 2.231939 3 2 ack 40 ------- 1 4.0 0.0 19 56
- 2.231939 3 2 ack 40 ------- 1 4.0 0.0 19 56
+ 2.238224 3 6 tcp 592 ------- 1 0.0 4.0 27 48
- 2.238224 3 6 tcp 592 ------- 1 0.0 4.0 27 48
d 2.238228 5 6 tcp 592 ------- 1 0.0 4.0 27 48
+ 2.239295 4 6 ack 40 ------- 1 4.0 0.0 22 59
- 2.239295 4 6 ack 40 ------- 1 4.0 0.0 22 59
d 2.239299 5 6 ack 40 ------- 1 4.0 0.0 22 59
r 2.245584 2 3 tcp 592 ------- 1 0.0 4.0 30 51
h 2.245584 3 6 tcp 592 ------- 1 0.0 4.0 30 51
r 2.246655 6 4 tcp 592 ------- 1 0.0 4.0 25 46
h 2.246655 4 6 ack 40 ------- 1 4.0 0.0 25 62
r 2.247725 6 3 ack 40 ------- 1 4.0 0.0 20 57
+ 2.247725 3 2 ack 40 ------- 1 4.0 0.0 20 57
- 2.247725 3 2 ack 40 ------- 1 4.0 0.0 20 57
+ 2.254011 3 6 tcp 592 ------- 1 0.0 4.0 28 49
- 2.254011 3 6 tcp 592 ------- 1 0.0 4.0 28 49
d 2.254015 5 6 tcp 592 ------- 1 0.0 4.0 28 49
+ 2.255081 4 6 ack 40 ------- 1 4.0 0.0 23 60
- 2.255081 4 6 ack 40 ------- 1 4.0 0.0 23 60
d 2.255085 5 6 ack 40 ------- 1 4.0 0.0 23 60
r 2.262441 6 4 tcp 592 ------- 1 0.0 4.0 26 47
h 2.262441 4 6 ack 40 ------- 1 4.0 0.0 26 63
r 2.263512 6 3 ack 40 ------- 1 4.0 0.0 21 58
+ 2.263512 3 2 ack 40 ------- 1 4.0 0.0 21 58
- 2.263512 3 2 ack 40 ------- 1 4.0 0.0 21 58
+ 2.269797 3 6 tcp 592 ------- 1 0.0 4.0 29 50
- 2.269797 3 6 tcp 592 ------- 1 0.0 4.0 29 50
d 2.269801 5 6 tcp 592 ------- 1 0.0 4.0 29 50
r 2.269859 3 2 ack 40 ------- 1 4.0 0.0 15 52
+ 2.269859 2 0 ack 40 ------- 1 4.0 0.0 15 52
- 2.269859 2 0 ack 40 ------- 1 4.0 0.0 15 52
+ 2.270868 4 6 ack 40 ------- 1 4.0 0.0 24 61
- 2.270868 4 6 ack 40 ------- 1 4.0 0.0 24 61
d 2.270872 5 6 ack 40 ------- 1 4.0 0.0 24 61
r 2.278228 6 4 tcp 592 ------- 1 0.0 4.0 27 48
h 2.278228 4 6 ack 40 ------- 1 4.0 0.0 27 64
r 2.279299 6 3 ack 40 ------- 1 4.0 0.0 22 59
+ 2.279299 3 2 ack 40 ------- 1 4.0 0.0 22 59
- 2.279299 3 2 ack 40 ------- 1 4.0 0.0 22 59
r 2.280019 2 0 ack 40 ------- 1 4.0 0.0 15 52
+ 2.280019 0 2 tcp 592 ------- 1 0.0 4.0 31 65
- 2.280019 0 2 tcp 592 ------- 1 0.0 4.0 31 65
+ 2.280019 0 2 tcp 592 ------- 1 0.0 4.0 32 66
- 2.282387 0 2 tcp 592 ------- 1 0.0 4.0 32 66
+ 2.285584 3 6 tcp 592 ------- 1 0.0 4.0 30 51
- 2.285584 3 6 tcp 592 ------- 1 0.0 4.0 30 51
d 2.285588 5 6 tcp 592 ------- 1 0.0 4.0 30 51
r 2.285645 3 2 ack 40 ------- 1 4.0 0.0 16 53
+ 2.285645 2 0 ack 40 ------- 1 4.0 0.0 16 53
- 2.285645 2 0 ack 40 ------- 1 4.0 0.0 16 53
+ 2.286655 4 6 ack 40 ------- 1 4.0 0.0 25 62
- 2.286655 4 6 ack 40 ------- 1 4.0 0.0 25 62
d 2.286659 5 6 ack 40 ------- 1 4.0 0.0 25 62
r 2.292387 0 2 tcp 592 ------- 1 0.0 4.0 31 65
+ 2.292387 2 3 tcp 592 ------- 1 0.0 4.0 31 65
- 2.292387 2 3 tcp 592 ------- 1 0.0 4.0 31 65
r 2.294015 6 4 tcp 592 ------- 1 0.0 4.0 28 49